<?xml version="1.0" encoding="UTF-8"?>

<!-- generated on 2026-07-05T22:12:58.931883+05:30 by Eclipse SUMO GUI 1.26.0
<sumoConfiguration xmlns:xsi="http://www.w3.org/2001/XMLSchema-instance" xsi:noNamespaceSchemaLocation="http://sumo.dlr.de/xsd/sumoConfiguration.xsd">

    <input>
        <net-file value="C:\DEV\ATLAS\sumo_map\adaptive\../network/smart5_main.net.xml"/>
        <route-files value="C:\DEV\ATLAS\sumo_map\adaptive\../network/smart5.rou.xml"/>
        <additional-files value="C:\DEV\ATLAS\sumo_map\adaptive\../network/smart5.poly.xml"/>
    </input>

    <output>
        <summary-output value="C:\DEV\ATLAS\sumo_map\adaptive\results/summary_smart.xml"/>
        <tripinfo-output value="C:\DEV\ATLAS\sumo_map\adaptive\results/tripinfo_smart.xml"/>
    </output>

    <time>
        <begin value="0"/>
        <end value="1000"/>
        <step-length value="0.1"/>
    </time>

    <traci_server>
        <remote-port value="12827"/>
    </traci_server>

</sumoConfiguration>
-->

<tripinfos xmlns:xsi="http://www.w3.org/2001/XMLSchema-instance" xsi:noNamespaceSchemaLocation="http://sumo.dlr.de/xsd/tripinfo_file.xsd">
    <tripinfo id="s8_out_bike.0" depart="1.60" departLane="1189082075#5.102_0" departPos="2.10" departSpeed="0.00" departDelay="1.60" arrival="88.20" arrivalLane="553958820#10_0" arrivalPos="61.27" arrivalSpeed="19.87" duration="86.60" routeLength="1255.51" waitingTime="7.30" waitingCount="1" stopTime="0.00" timeLoss="23.18" rerouteNo="0" devices="tripinfo_s8_out_bike.0" vType="motorbike" speedFactor="0.94" vaporized=""/>
    <tripinfo id="s10_in_bike.0" depart="0.00" departLane="-1170388412#0_0" departPos="2.10" departSpeed="0.00" departDelay="0.00" arrival="108.30" arrivalLane="183255900#1_0" arrivalPos="24.62" arrivalSpeed="19.96" duration="108.30" routeLength="1198.17" waitingTime="25.00" waitingCount="2" stopTime="0.00" timeLoss="39.19" rerouteNo="0" devices="tripinfo_s10_in_bike.0" vType="motorbike" speedFactor="1.09" vaporized=""/>
    <tripinfo id="s8_in_bike.0" depart="0.00" departLane="-553958820#10.154_0" departPos="2.10" departSpeed="0.00" departDelay="0.00" arrival="115.90" arrivalLane="151829692#1_0" arrivalPos="49.23" arrivalSpeed="19.94" duration="115.90" routeLength="1192.31" waitingTime="36.20" waitingCount="2" stopTime="0.00" timeLoss="54.39" rerouteNo="0" devices="tripinfo_s8_in_bike.0" vType="motorbike" speedFactor="0.93" vaporized=""/>
    <tripinfo id="s10_in_car.0" depart="2.20" departLane="-1170388412#0_0" departPos="4.60" departSpeed="0.00" departDelay="2.20" arrival="117.50" arrivalLane="183255900#1_0" arrivalPos="24.62" arrivalSpeed="16.58" duration="115.30" routeLength="1195.67" waitingTime="27.70" waitingCount="1" stopTime="0.00" timeLoss="37.11" rerouteNo="0" devices="tripinfo_s10_in_car.0" vType="car" speedFactor="1.03" vaporized=""/>
    <tripinfo id="s8_in_car.0" depart="2.20" departLane="-553958820#10.154_0" departPos="4.60" departSpeed="0.00" departDelay="2.20" arrival="124.30" arrivalLane="151829692#1_1" arrivalPos="49.23" arrivalSpeed="16.65" duration="122.10" routeLength="1193.43" waitingTime="26.00" waitingCount="3" stopTime="0.00" timeLoss="49.06" rerouteNo="0" devices="tripinfo_s8_in_car.0" vType="car" speedFactor="0.88" vaporized=""/>
    <tripinfo id="s10_in_rick.0" depart="4.20" departLane="-1170388412#0_0" departPos="2.90" departSpeed="0.00" departDelay="4.20" arrival="128.70" arrivalLane="151829692#1_0" arrivalPos="49.23" arrivalSpeed="11.03" duration="124.50" routeLength="1007.59" waitingTime="20.70" waitingCount="1" stopTime="0.00" timeLoss="32.76" rerouteNo="0" devices="tripinfo_s10_in_rick.0" vType="rickshaw" speedFactor="1.05" vaporized=""/>
    <tripinfo id="sn_bike.0" depart="4.20" departLane="1189082075#5.102_0" departPos="2.10" departSpeed="0.00" departDelay="4.20" arrival="129.90" arrivalLane="151829692#1_0" arrivalPos="49.23" arrivalSpeed="14.21" duration="125.70" routeLength="1479.35" waitingTime="31.50" waitingCount="1" stopTime="0.00" timeLoss="50.98" rerouteNo="0" devices="tripinfo_sn_bike.0" vType="motorbike" speedFactor="1.01" vaporized=""/>
    <tripinfo id="sn_car.1" depart="19.40" departLane="1189082075#5.102_0" departPos="4.60" departSpeed="0.00" departDelay="12.20" arrival="131.20" arrivalLane="151829692#1_1" arrivalPos="49.23" arrivalSpeed="16.68" duration="111.80" routeLength="1480.47" waitingTime="6.40" waitingCount="1" stopTime="0.00" timeLoss="22.35" rerouteNo="0" devices="tripinfo_sn_car.1" vType="car" speedFactor="0.92" vaporized=""/>
    <tripinfo id="sn_bike.2" depart="24.50" departLane="1189082075#5.102_0" departPos="2.10" departSpeed="0.00" departDelay="8.50" arrival="132.50" arrivalLane="151829692#1_1" arrivalPos="49.23" arrivalSpeed="19.47" duration="108.00" routeLength="1482.97" waitingTime="4.40" waitingCount="1" stopTime="0.00" timeLoss="33.02" rerouteNo="0" devices="tripinfo_sn_bike.2" vType="motorbike" speedFactor="0.99" vaporized=""/>
    <tripinfo id="sn_car.0" depart="9.70" departLane="1189082075#5.102_0" departPos="4.60" departSpeed="0.00" departDelay="9.70" arrival="132.60" arrivalLane="151829692#1_0" arrivalPos="49.23" arrivalSpeed="16.64" duration="122.90" routeLength="1476.73" waitingTime="15.70" waitingCount="1" stopTime="0.00" timeLoss="33.75" rerouteNo="0" devices="tripinfo_sn_car.0" vType="car" speedFactor="0.97" vaporized=""/>
    <tripinfo id="sn_car.2" depart="22.90" departLane="1189082075#5.102_0" departPos="4.60" departSpeed="0.00" departDelay="8.50" arrival="134.40" arrivalLane="151829692#1_1" arrivalPos="49.23" arrivalSpeed="16.67" duration="111.50" routeLength="1480.47" waitingTime="2.40" waitingCount="1" stopTime="0.00" timeLoss="22.27" rerouteNo="0" devices="tripinfo_sn_car.2" vType="car" speedFactor="1.01" vaporized=""/>
    <tripinfo id="sn_bike.1" depart="20.70" departLane="1189082075#5.102_0" departPos="2.10" departSpeed="0.00" departDelay="12.70" arrival="135.70" arrivalLane="151829692#1_1" arrivalPos="49.23" arrivalSpeed="19.29" duration="115.00" routeLength="1482.85" waitingTime="5.60" waitingCount="1" stopTime="0.00" timeLoss="40.26" rerouteNo="0" devices="tripinfo_sn_bike.1" vType="motorbike" speedFactor="1.13" vaporized=""/>
    <tripinfo id="sn_bike.3" depart="33.20" departLane="1189082075#5.102_0" departPos="2.10" departSpeed="0.00" departDelay="9.20" arrival="139.00" arrivalLane="151829692#1_1" arrivalPos="49.23" arrivalSpeed="19.83" duration="105.80" routeLength="1482.97" waitingTime="5.20" waitingCount="1" stopTime="0.00" timeLoss="30.58" rerouteNo="0" devices="tripinfo_sn_bike.3" vType="motorbike" speedFactor="0.88" vaporized=""/>
    <tripinfo id="sn_bus.0" depart="6.00" departLane="1189082075#5.102_0" departPos="10.60" departSpeed="0.00" departDelay="6.00" arrival="141.90" arrivalLane="151829692#1_0" arrivalPos="49.23" arrivalSpeed="13.87" duration="135.90" routeLength="1470.73" waitingTime="8.00" waitingCount="1" stopTime="0.00" timeLoss="29.65" rerouteNo="0" devices="tripinfo_sn_bus.0" vType="bus" speedFactor="1.00" vaporized=""/>
    <tripinfo id="sn_car.4" depart="35.40" departLane="1189082075#5.102_0" departPos="4.60" departSpeed="0.00" departDelay="6.60" arrival="143.10" arrivalLane="151829692#1_1" arrivalPos="49.23" arrivalSpeed="16.61" duration="107.70" routeLength="1480.47" waitingTime="0.00" waitingCount="0" stopTime="0.00" timeLoss="18.44" rerouteNo="0" devices="tripinfo_sn_car.4" vType="car" speedFactor="1.02" vaporized=""/>
    <tripinfo id="sn_bike.4" depart="39.50" departLane="1189082075#5.102_0" departPos="2.10" departSpeed="0.00" departDelay="7.50" arrival="144.40" arrivalLane="151829692#1_1" arrivalPos="49.23" arrivalSpeed="19.83" duration="104.90" routeLength="1482.97" waitingTime="0.00" waitingCount="0" stopTime="0.00" timeLoss="29.95" rerouteNo="0" devices="tripinfo_sn_bike.4" vType="motorbike" speedFactor="1.02" vaporized=""/>
    <tripinfo id="s8_in_rick.0" depart="4.20" departLane="-553958820#10.154_0" departPos="2.90" departSpeed="0.00" departDelay="4.20" arrival="145.30" arrivalLane="183255900#1_0" arrivalPos="24.62" arrivalSpeed="11.01" duration="141.10" routeLength="1311.55" waitingTime="7.10" waitingCount="1" stopTime="0.00" timeLoss="22.12" rerouteNo="0" devices="tripinfo_s8_in_rick.0" vType="rickshaw" speedFactor="0.94" vaporized=""/>
    <tripinfo id="sn_bike.5" depart="44.40" departLane="1189082075#5.102_0" departPos="2.10" departSpeed="0.00" departDelay="4.40" arrival="145.80" arrivalLane="151829692#1_1" arrivalPos="49.23" arrivalSpeed="19.94" duration="101.40" routeLength="1482.97" waitingTime="0.00" waitingCount="0" stopTime="0.00" timeLoss="26.35" rerouteNo="0" devices="tripinfo_sn_bike.5" vType="motorbike" speedFactor="0.91" vaporized=""/>
    <tripinfo id="sn_truck.0" depart="15.30" departLane="1189082075#5.102_0" departPos="8.10" departSpeed="0.00" departDelay="15.30" arrival="146.40" arrivalLane="151829692#1_0" arrivalPos="49.23" arrivalSpeed="13.90" duration="131.10" routeLength="1473.35" waitingTime="0.00" waitingCount="0" stopTime="0.00" timeLoss="24.49" rerouteNo="0" devices="tripinfo_sn_truck.0" vType="truck" speedFactor="0.91" vaporized=""/>
    <tripinfo id="s8_out_bike.1" depart="32.10" departLane="1189082075#5.102_0" departPos="2.10" departSpeed="0.00" departDelay="8.10" arrival="148.10" arrivalLane="553958820#10_0" arrivalPos="61.27" arrivalSpeed="19.77" duration="116.00" routeLength="1255.51" waitingTime="18.30" waitingCount="2" stopTime="0.00" timeLoss="52.56" rerouteNo="0" devices="tripinfo_s8_out_bike.1" vType="motorbike" speedFactor="0.90" vaporized=""/>
    <tripinfo id="sn_car.6" depart="48.30" departLane="1189082075#5.102_0" departPos="4.60" departSpeed="0.00" departDelay="5.10" arrival="148.50" arrivalLane="151829692#1_1" arrivalPos="49.23" arrivalSpeed="16.58" duration="100.20" routeLength="1480.47" waitingTime="0.00" waitingCount="0" stopTime="0.00" timeLoss="10.81" rerouteNo="0" devices="tripinfo_sn_car.6" vType="car" speedFactor="0.94" vaporized=""/>
    <tripinfo id="s8_out_bike.2" depart="50.00" departLane="1189082075#5.102_0" departPos="2.10" departSpeed="0.00" departDelay="2.00" arrival="149.20" arrivalLane="553958820#10_0" arrivalPos="61.27" arrivalSpeed="19.90" duration="99.20" routeLength="1255.51" waitingTime="6.50" waitingCount="1" stopTime="0.00" timeLoss="35.87" rerouteNo="0" devices="tripinfo_s8_out_bike.2" vType="motorbike" speedFactor="1.09" vaporized=""/>
    <tripinfo id="sn_car.5" depart="42.80" departLane="1189082075#5.102_0" departPos="4.60" departSpeed="0.00" departDelay="6.80" arrival="150.30" arrivalLane="151829692#1_1" arrivalPos="49.23" arrivalSpeed="16.58" duration="107.50" routeLength="1480.47" waitingTime="0.00" waitingCount="0" stopTime="0.00" timeLoss="18.12" rerouteNo="0" devices="tripinfo_sn_car.5" vType="car" speedFactor="0.94" vaporized=""/>
    <tripinfo id="sn_bike.7" depart="57.20" departLane="1189082075#5.102_0" departPos="2.10" departSpeed="0.00" departDelay="1.20" arrival="151.50" arrivalLane="151829692#1_1" arrivalPos="49.23" arrivalSpeed="19.25" duration="94.30" routeLength="1482.97" waitingTime="0.00" waitingCount="0" stopTime="0.00" timeLoss="19.43" rerouteNo="0" devices="tripinfo_sn_bike.7" vType="motorbike" speedFactor="1.01" vaporized=""/>
    <tripinfo id="sn_rickshaw.0" depart="11.20" departLane="1189082075#5.102_0" departPos="2.90" departSpeed="0.00" departDelay="11.20" arrival="157.90" arrivalLane="151829692#1_0" arrivalPos="49.23" arrivalSpeed="11.04" duration="146.70" routeLength="1478.43" waitingTime="0.00" waitingCount="0" stopTime="0.00" timeLoss="13.14" rerouteNo="0" devices="tripinfo_sn_rickshaw.0" vType="rickshaw" speedFactor="0.89" vaporized=""/>
    <tripinfo id="sn_bike.6" depart="51.00" departLane="1189082075#5.102_0" departPos="2.10" departSpeed="0.00" departDelay="3.00" arrival="159.20" arrivalLane="151829692#1_0" arrivalPos="49.23" arrivalSpeed="13.72" duration="108.20" routeLength="1479.23" waitingTime="0.00" waitingCount="0" stopTime="0.00" timeLoss="33.50" rerouteNo="0" devices="tripinfo_sn_bike.6" vType="motorbike" speedFactor="1.03" vaporized=""/>
    <tripinfo id="sn_car.7" depart="53.10" departLane="1189082075#5.102_0" departPos="4.60" departSpeed="0.00" departDelay="2.70" arrival="159.60" arrivalLane="151829692#1_1" arrivalPos="49.23" arrivalSpeed="16.63" duration="106.50" routeLength="1480.35" waitingTime="2.30" waitingCount="1" stopTime="0.00" timeLoss="17.24" rerouteNo="0" devices="tripinfo_sn_car.7" vType="car" speedFactor="1.02" vaporized=""/>
    <tripinfo id="sn_car.3" depart="30.40" departLane="1189082075#5.102_0" departPos="4.60" departSpeed="0.00" departDelay="8.80" arrival="160.40" arrivalLane="151829692#1_0" arrivalPos="49.23" arrivalSpeed="15.46" duration="130.00" routeLength="1476.73" waitingTime="4.90" waitingCount="1" stopTime="0.00" timeLoss="41.04" rerouteNo="0" devices="tripinfo_sn_car.3" vType="car" speedFactor="1.09" vaporized=""/>
    <tripinfo id="s10_out_car.0" depart="0.00" departLane="1189082075#5.102_0" departPos="4.60" departSpeed="0.00" departDelay="0.00" arrival="161.80" arrivalLane="1170388412#0_0" arrivalPos="277.72" arrivalSpeed="13.65" duration="161.80" routeLength="1186.21" waitingTime="69.20" waitingCount="2" stopTime="0.00" timeLoss="84.73" rerouteNo="0" devices="tripinfo_s10_out_car.0" vType="car" speedFactor="0.99" vaporized=""/>
    <tripinfo id="s10_out_car.1" depart="37.90" departLane="1189082075#5.102_0" departPos="4.60" departSpeed="0.00" departDelay="7.90" arrival="163.30" arrivalLane="1170388412#0_0" arrivalPos="277.72" arrivalSpeed="13.81" duration="125.40" routeLength="1186.21" waitingTime="24.70" waitingCount="1" stopTime="0.00" timeLoss="48.63" rerouteNo="0" devices="tripinfo_s10_out_car.1" vType="car" speedFactor="1.00" vaporized=""/>
    <tripinfo id="hw_s_bike.0" depart="5.20" departLane="177566553#6_0" departPos="2.10" departSpeed="0.00" departDelay="5.20" arrival="174.10" arrivalLane="183255900#1_1" arrivalPos="24.62" arrivalSpeed="19.84" duration="168.90" routeLength="2245.57" waitingTime="0.00" waitingCount="0" stopTime="0.00" timeLoss="10.58" rerouteNo="0" devices="tripinfo_hw_s_bike.0" vType="motorbike" speedFactor="1.01" vaporized=""/>
    <tripinfo id="hw_s_car.0" depart="6.20" departLane="177566553#6_0" departPos="4.60" departSpeed="0.00" departDelay="6.20" arrival="174.50" arrivalLane="183255900#1_0" arrivalPos="24.62" arrivalSpeed="16.68" duration="168.30" routeLength="2243.07" waitingTime="0.00" waitingCount="0" stopTime="0.00" timeLoss="6.89" rerouteNo="0" devices="tripinfo_hw_s_car.0" vType="car" speedFactor="1.08" vaporized=""/>
    <tripinfo id="hw_s_car.1" depart="16.90" departLane="177566553#6_0" departPos="4.60" departSpeed="0.00" departDelay="2.50" arrival="178.80" arrivalLane="183255900#1_0" arrivalPos="24.62" arrivalSpeed="16.61" duration="161.90" routeLength="2243.07" waitingTime="0.00" waitingCount="0" stopTime="0.00" timeLoss="8.53" rerouteNo="0" devices="tripinfo_hw_s_car.1" vType="car" speedFactor="1.18" vaporized=""/>
    <tripinfo id="s10_out_car.2" depart="60.70" departLane="1189082075#5.102_0" departPos="4.60" departSpeed="0.00" departDelay="0.70" arrival="190.70" arrivalLane="1170388412#0_0" arrivalPos="277.72" arrivalSpeed="13.90" duration="130.00" routeLength="1186.21" waitingTime="25.20" waitingCount="1" stopTime="0.00" timeLoss="53.49" rerouteNo="0" devices="tripinfo_s10_out_car.2" vType="car" speedFactor="1.01" vaporized=""/>
    <tripinfo id="hw_bus.0" depart="0.00" departLane="177566553#6_0" departPos="10.60" departSpeed="0.00" departDelay="0.00" arrival="192.20" arrivalLane="183255900#1_0" arrivalPos="24.62" arrivalSpeed="13.88" duration="192.20" routeLength="2237.07" waitingTime="0.00" waitingCount="0" stopTime="0.00" timeLoss="10.48" rerouteNo="0" devices="tripinfo_hw_bus.0" vType="bus" speedFactor="1.00" vaporized=""/>
    <tripinfo id="s10_in_bike.1" depart="24.00" departLane="-1170388412#0_0" departPos="2.10" departSpeed="0.00" departDelay="0.00" arrival="193.80" arrivalLane="183255900#1_0" arrivalPos="24.62" arrivalSpeed="17.58" duration="169.80" routeLength="1198.17" waitingTime="78.20" waitingCount="2" stopTime="0.00" timeLoss="99.18" rerouteNo="0" devices="tripinfo_s10_in_bike.1" vType="motorbike" speedFactor="1.04" vaporized=""/>
    <tripinfo id="hw_s_bike.1" depart="19.40" departLane="177566553#6_0" departPos="2.10" departSpeed="0.00" departDelay="1.40" arrival="195.00" arrivalLane="183255900#1_0" arrivalPos="24.62" arrivalSpeed="19.93" duration="175.60" routeLength="2245.57" waitingTime="0.00" waitingCount="0" stopTime="0.00" timeLoss="13.28" rerouteNo="0" devices="tripinfo_hw_s_bike.1" vType="motorbike" speedFactor="0.97" vaporized=""/>
    <tripinfo id="ns_bike.0" depart="1.60" departLane="1465267571#5_0" departPos="2.10" departSpeed="0.00" departDelay="1.60" arrival="199.40" arrivalLane="183255900#1_1" arrivalPos="24.62" arrivalSpeed="19.81" duration="197.80" routeLength="1495.30" waitingTime="97.50" waitingCount="3" stopTime="0.00" timeLoss="120.98" rerouteNo="0" devices="tripinfo_ns_bike.0" vType="motorbike" speedFactor="1.05" vaporized=""/>
    <tripinfo id="ns_car.0" depart="7.10" departLane="1465267571#5_0" departPos="4.60" departSpeed="0.00" departDelay="7.10" arrival="206.10" arrivalLane="183255900#1_0" arrivalPos="24.62" arrivalSpeed="16.67" duration="199.00" routeLength="1492.80" waitingTime="76.90" waitingCount="3" stopTime="0.00" timeLoss="107.31" rerouteNo="0" devices="tripinfo_ns_car.0" vType="car" speedFactor="0.89" vaporized=""/>
    <tripinfo id="ns_bike.1" depart="20.70" departLane="1465267571#5_0" departPos="2.10" departSpeed="0.00" departDelay="12.70" arrival="211.20" arrivalLane="183255900#1_1" arrivalPos="24.62" arrivalSpeed="19.80" duration="190.50" routeLength="1495.30" waitingTime="42.10" waitingCount="3" stopTime="0.00" timeLoss="112.88" rerouteNo="0" devices="tripinfo_ns_bike.1" vType="motorbike" speedFactor="0.95" vaporized=""/>
    <tripinfo id="ns_car.1" depart="19.00" departLane="1465267571#5_0" departPos="4.60" departSpeed="0.00" departDelay="11.80" arrival="212.60" arrivalLane="183255900#1_0" arrivalPos="24.62" arrivalSpeed="16.69" duration="193.60" routeLength="1492.80" waitingTime="46.00" waitingCount="3" stopTime="0.00" timeLoss="101.84" rerouteNo="0" devices="tripinfo_ns_car.1" vType="car" speedFactor="0.87" vaporized=""/>
    <tripinfo id="s8_out_bike.3" depart="72.00" departLane="1189082075#5.102_0" departPos="2.10" departSpeed="0.00" departDelay="0.00" arrival="218.20" arrivalLane="553958820#10_0" arrivalPos="61.27" arrivalSpeed="19.85" duration="146.20" routeLength="1255.51" waitingTime="37.30" waitingCount="2" stopTime="0.00" timeLoss="82.70" rerouteNo="0" devices="tripinfo_s8_out_bike.3" vType="motorbike" speedFactor="0.92" vaporized=""/>
    <tripinfo id="sn_rickshaw.1" depart="27.40" departLane="1189082075#5.102_0" departPos="2.90" departSpeed="0.00" departDelay="7.40" arrival="218.80" arrivalLane="151829692#1_0" arrivalPos="49.23" arrivalSpeed="11.07" duration="191.40" routeLength="1478.43" waitingTime="45.90" waitingCount="1" stopTime="0.00" timeLoss="58.00" rerouteNo="0" devices="tripinfo_sn_rickshaw.1" vType="rickshaw" speedFactor="1.03" vaporized=""/>
    <tripinfo id="s8_out_bike.4" depart="99.20" departLane="1189082075#5.102_0" departPos="2.10" departSpeed="0.00" departDelay="3.20" arrival="219.20" arrivalLane="553958820#10_0" arrivalPos="61.27" arrivalSpeed="19.82" duration="120.00" routeLength="1255.51" waitingTime="2.00" waitingCount="1" stopTime="0.00" timeLoss="56.60" rerouteNo="0" devices="tripinfo_s8_out_bike.4" vType="motorbike" speedFactor="0.97" vaporized=""/>
    <tripinfo id="s10_in_rick.1" depart="45.00" departLane="-1170388412#0_0" departPos="2.90" departSpeed="0.00" departDelay="0.00" arrival="220.10" arrivalLane="151829692#1_0" arrivalPos="49.23" arrivalSpeed="11.05" duration="175.10" routeLength="1007.59" waitingTime="57.10" waitingCount="3" stopTime="0.00" timeLoss="83.42" rerouteNo="0" devices="tripinfo_s10_in_rick.1" vType="rickshaw" speedFactor="1.06" vaporized=""/>
    <tripinfo id="s8_out_bike.5" depart="121.60" departLane="1189082075#5.102_0" departPos="2.10" departSpeed="0.00" departDelay="1.60" arrival="220.30" arrivalLane="553958820#10_0" arrivalPos="61.27" arrivalSpeed="19.90" duration="98.70" routeLength="1255.51" waitingTime="0.00" waitingCount="0" stopTime="0.00" timeLoss="35.39" rerouteNo="0" devices="tripinfo_s8_out_bike.5" vType="motorbike" speedFactor="1.06" vaporized=""/>
    <tripinfo id="hw_n_bike.0" depart="2.40" departLane="177566553#6_0" departPos="2.10" departSpeed="0.00" departDelay="2.40" arrival="221.40" arrivalLane="151829692#1_0" arrivalPos="49.23" arrivalSpeed="14.04" duration="219.00" routeLength="2180.20" waitingTime="35.90" waitingCount="1" stopTime="0.00" timeLoss="70.48" rerouteNo="0" devices="tripinfo_hw_n_bike.0" vType="motorbike" speedFactor="1.06" vaporized=""/>
    <tripinfo id="ns_bike.2" depart="23.40" departLane="1465267571#5_0" departPos="2.10" departSpeed="0.00" departDelay="7.40" arrival="221.60" arrivalLane="183255900#1_0" arrivalPos="24.62" arrivalSpeed="19.83" duration="198.20" routeLength="1495.30" waitingTime="45.60" waitingCount="4" stopTime="0.00" timeLoss="122.11" rerouteNo="0" devices="tripinfo_ns_bike.2" vType="motorbike" speedFactor="1.17" vaporized=""/>
    <tripinfo id="s8_in_bike.1" depart="24.00" departLane="-553958820#10.154_0" departPos="2.10" departSpeed="0.00" departDelay="0.00" arrival="222.40" arrivalLane="151829692#1_0" arrivalPos="49.23" arrivalSpeed="15.48" duration="198.40" routeLength="1192.31" waitingTime="92.60" waitingCount="3" stopTime="0.00" timeLoss="137.26" rerouteNo="0" devices="tripinfo_s8_in_bike.1" vType="motorbike" speedFactor="1.00" vaporized=""/>
    <tripinfo id="sn_bike.8" depart="64.60" departLane="1189082075#5.102_0" departPos="2.10" departSpeed="0.00" departDelay="0.60" arrival="223.40" arrivalLane="151829692#1_0" arrivalPos="49.23" arrivalSpeed="17.28" duration="158.80" routeLength="1479.35" waitingTime="37.80" waitingCount="2" stopTime="0.00" timeLoss="83.95" rerouteNo="0" devices="tripinfo_sn_bike.8" vType="motorbike" speedFactor="0.96" vaporized=""/>
    <tripinfo id="s10_in_rick.2" depart="91.90" departLane="-1170388412#0_0" departPos="2.90" departSpeed="0.00" departDelay="1.90" arrival="225.80" arrivalLane="151829692#1_0" arrivalPos="49.23" arrivalSpeed="11.04" duration="133.90" routeLength="1007.59" waitingTime="21.50" waitingCount="1" stopTime="0.00" timeLoss="42.39" rerouteNo="0" devices="tripinfo_s10_in_rick.2" vType="rickshaw" speedFactor="1.12" vaporized=""/>
    <tripinfo id="sn_car.9" depart="65.60" departLane="1189082075#5.102_0" departPos="4.60" departSpeed="0.00" departDelay="0.80" arrival="227.10" arrivalLane="151829692#1_0" arrivalPos="49.23" arrivalSpeed="13.39" duration="161.50" routeLength="1476.85" waitingTime="30.00" waitingCount="1" stopTime="0.00" timeLoss="72.39" rerouteNo="0" devices="tripinfo_sn_car.9" vType="car" speedFactor="0.95" vaporized=""/>
    <tripinfo id="ns_bike.3" depart="30.90" departLane="1465267571#5_0" departPos="2.10" departSpeed="0.00" departDelay="6.90" arrival="227.20" arrivalLane="183255900#1_1" arrivalPos="24.62" arrivalSpeed="19.89" duration="196.30" routeLength="1495.30" waitingTime="36.30" waitingCount="3" stopTime="0.00" timeLoss="119.35" rerouteNo="0" devices="tripinfo_ns_bike.3" vType="motorbike" speedFactor="1.04" vaporized=""/>
    <tripinfo id="sn_bike.11" depart="91.70" departLane="1189082075#5.102_0" departPos="2.10" departSpeed="0.00" departDelay="3.70" arrival="228.40" arrivalLane="151829692#1_0" arrivalPos="49.23" arrivalSpeed="15.57" duration="136.70" routeLength="1479.35" waitingTime="0.70" waitingCount="1" stopTime="0.00" timeLoss="62.03" rerouteNo="0" devices="tripinfo_sn_bike.11" vType="motorbike" speedFactor="1.07" vaporized=""/>
    <tripinfo id="sn_car.8" depart="58.20" departLane="1189082075#5.102_0" departPos="4.60" departSpeed="0.00" departDelay="0.60" arrival="229.50" arrivalLane="151829692#1_0" arrivalPos="49.23" arrivalSpeed="16.33" duration="171.30" routeLength="1476.73" waitingTime="41.70" waitingCount="2" stopTime="0.00" timeLoss="81.95" rerouteNo="0" devices="tripinfo_sn_car.8" vType="car" speedFactor="0.83" vaporized=""/>
    <tripinfo id="ns_car.3" depart="29.30" departLane="1465267571#5_0" departPos="4.60" departSpeed="0.00" departDelay="7.70" arrival="229.60" arrivalLane="183255900#1_0" arrivalPos="24.62" arrivalSpeed="16.60" duration="200.30" routeLength="1492.80" waitingTime="43.10" waitingCount="3" stopTime="0.00" timeLoss="109.08" rerouteNo="0" devices="tripinfo_ns_car.3" vType="car" speedFactor="0.96" vaporized=""/>
    <tripinfo id="sn_car.10" depart="76.90" departLane="1189082075#5.102_0" departPos="4.60" departSpeed="0.00" departDelay="4.90" arrival="230.70" arrivalLane="151829692#1_0" arrivalPos="49.23" arrivalSpeed="16.70" duration="153.80" routeLength="1476.85" waitingTime="19.60" waitingCount="1" stopTime="0.00" timeLoss="64.74" rerouteNo="0" devices="tripinfo_sn_car.10" vType="car" speedFactor="0.99" vaporized=""/>
    <tripinfo id="sn_car.13" depart="97.50" departLane="1189082075#5.102_0" departPos="4.60" departSpeed="0.00" departDelay="3.90" arrival="231.90" arrivalLane="151829692#1_0" arrivalPos="49.23" arrivalSpeed="16.69" duration="134.40" routeLength="1476.85" waitingTime="0.00" waitingCount="0" stopTime="0.00" timeLoss="45.54" rerouteNo="0" devices="tripinfo_sn_car.13" vType="car" speedFactor="1.13" vaporized=""/>
    <tripinfo id="ns_car.4" depart="34.00" departLane="1465267571#5_0" departPos="4.60" departSpeed="0.00" departDelay="5.20" arrival="232.40" arrivalLane="183255900#1_1" arrivalPos="24.62" arrivalSpeed="16.66" duration="198.40" routeLength="1492.80" waitingTime="32.60" waitingCount="2" stopTime="0.00" timeLoss="108.55" rerouteNo="0" devices="tripinfo_ns_car.4" vType="car" speedFactor="1.17" vaporized=""/>
    <tripinfo id="sn_bike.9" depart="75.90" departLane="1189082075#5.102_0" departPos="2.10" departSpeed="0.00" departDelay="3.90" arrival="233.10" arrivalLane="151829692#1_0" arrivalPos="49.23" arrivalSpeed="18.98" duration="157.20" routeLength="1479.35" waitingTime="27.20" waitingCount="1" stopTime="0.00" timeLoss="82.45" rerouteNo="0" devices="tripinfo_sn_bike.9" vType="motorbike" speedFactor="1.00" vaporized=""/>
    <tripinfo id="sn_car.12" depart="90.00" departLane="1189082075#5.102_0" departPos="4.60" departSpeed="0.00" departDelay="3.60" arrival="234.30" arrivalLane="151829692#1_0" arrivalPos="49.23" arrivalSpeed="16.63" duration="144.30" routeLength="1476.73" waitingTime="7.60" waitingCount="3" stopTime="0.00" timeLoss="55.26" rerouteNo="0" devices="tripinfo_sn_car.12" vType="car" speedFactor="1.01" vaporized=""/>
    <tripinfo id="sn_bike.10" depart="85.30" departLane="1189082075#5.102_0" departPos="2.10" departSpeed="0.00" departDelay="5.30" arrival="234.40" arrivalLane="151829692#1_1" arrivalPos="49.23" arrivalSpeed="19.88" duration="149.10" routeLength="1482.97" waitingTime="17.10" waitingCount="1" stopTime="0.00" timeLoss="74.32" rerouteNo="0" devices="tripinfo_sn_bike.10" vType="motorbike" speedFactor="1.06" vaporized=""/>
    <tripinfo id="ns_car.7" depart="51.60" departLane="1465267571#5_0" departPos="4.60" departSpeed="0.00" departDelay="1.20" arrival="234.50" arrivalLane="183255900#1_1" arrivalPos="24.62" arrivalSpeed="16.59" duration="182.90" routeLength="1496.22" waitingTime="19.50" waitingCount="2" stopTime="0.00" timeLoss="91.84" rerouteNo="0" devices="tripinfo_ns_car.7" vType="car" speedFactor="1.00" vaporized=""/>
    <tripinfo id="s_hw_car.1" depart="25.40" departLane="1189082075#5.102_0" departPos="4.60" departSpeed="0.00" departDelay="7.40" arrival="235.60" arrivalLane="1265532934#1_1" arrivalPos="99.94" arrivalSpeed="16.60" duration="210.20" routeLength="2297.34" waitingTime="16.70" waitingCount="3" stopTime="0.00" timeLoss="48.00" rerouteNo="0" devices="tripinfo_s_hw_car.1" vType="car" speedFactor="1.10" vaporized=""/>
    <tripinfo id="sn_car.11" depart="84.10" departLane="1189082075#5.102_0" departPos="4.60" departSpeed="0.00" departDelay="4.90" arrival="235.60" arrivalLane="151829692#1_0" arrivalPos="49.23" arrivalSpeed="16.67" duration="151.50" routeLength="1476.85" waitingTime="14.40" waitingCount="1" stopTime="0.00" timeLoss="62.53" rerouteNo="0" devices="tripinfo_sn_car.11" vType="car" speedFactor="1.10" vaporized=""/>
    <tripinfo id="s_hw_car.0" depart="2.60" departLane="1189082075#5.102_0" departPos="4.60" departSpeed="0.00" departDelay="2.60" arrival="235.70" arrivalLane="1265532934#1_0" arrivalPos="99.94" arrivalSpeed="16.58" duration="233.10" routeLength="2291.93" waitingTime="38.20" waitingCount="3" stopTime="0.00" timeLoss="63.35" rerouteNo="0" devices="tripinfo_s_hw_car.0" vType="car" speedFactor="1.02" vaporized=""/>
    <tripinfo id="ns_bike.4" depart="38.00" departLane="1465267571#5_0" departPos="2.10" departSpeed="0.00" departDelay="6.00" arrival="235.70" arrivalLane="183255900#1_1" arrivalPos="24.62" arrivalSpeed="19.26" duration="197.70" routeLength="1495.30" waitingTime="28.50" waitingCount="2" stopTime="0.00" timeLoss="121.47" rerouteNo="0" devices="tripinfo_ns_bike.4" vType="motorbike" speedFactor="1.14" vaporized=""/>
    <tripinfo id="sn_bike.13" depart="106.50" departLane="1189082075#5.102_0" departPos="2.10" departSpeed="0.00" departDelay="2.50" arrival="236.80" arrivalLane="151829692#1_0" arrivalPos="49.23" arrivalSpeed="18.08" duration="130.30" routeLength="1479.35" waitingTime="0.00" waitingCount="0" stopTime="0.00" timeLoss="55.67" rerouteNo="0" devices="tripinfo_sn_bike.13" vType="motorbike" speedFactor="1.08" vaporized=""/>