<?xml version="1.0" encoding="UTF-8"?>

<!-- generated on 2026-07-06T23:52:34.399795+05:30 by Eclipse SUMO sumo 1.26.0
<sumoConfiguration xmlns:xsi="http://www.w3.org/2001/XMLSchema-instance" xsi:noNamespaceSchemaLocation="http://sumo.dlr.de/xsd/sumoConfiguration.xsd">

    <input>
        <net-file value="C:\DEV\ATLAS\sumo_map\adaptive\../network/smart5_main.net.xml"/>
        <route-files value="C:\DEV\ATLAS\sumo_map\adaptive\../network/smart5.rou.xml"/>
        <additional-files value="C:\DEV\ATLAS\sumo_map\adaptive\../network/smart5.poly.xml"/>
    </input>

    <output>
        <summary-output value="C:\DEV\ATLAS\sumo_map\adaptive\results/summary_smart.xml"/>
        <tripinfo-output value="C:\DEV\ATLAS\sumo_map\adaptive\results/tripinfo_smart.xml"/>
    </output>

    <time>
        <begin value="0"/>
        <end value="1000"/>
        <step-length value="0.1"/>
    </time>

    <traci_server>
        <remote-port value="31512"/>
    </traci_server>

</sumoConfiguration>
-->

<tripinfos xmlns:xsi="http://www.w3.org/2001/XMLSchema-instance" xsi:noNamespaceSchemaLocation="http://sumo.dlr.de/xsd/tripinfo_file.xsd">
    <tripinfo id="s8_out_bike.0" depart="1.60" departLane="1189082075#5.102_0" departPos="2.10" departSpeed="0.00" departDelay="1.60" arrival="74.80" arrivalLane="553958820#10_0" arrivalPos="61.27" arrivalSpeed="19.77" duration="73.20" routeLength="1255.51" waitingTime="0.00" waitingCount="0" stopTime="0.00" timeLoss="9.76" rerouteNo="0" devices="tripinfo_s8_out_bike.0" vType="motorbike" speedFactor="0.94" vaporized=""/>
    <tripinfo id="s10_in_rick.0" depart="4.20" departLane="-1170388412#0_0" departPos="2.90" departSpeed="0.00" departDelay="4.20" arrival="128.70" arrivalLane="151829692#1_0" arrivalPos="49.23" arrivalSpeed="11.00" duration="124.50" routeLength="1007.59" waitingTime="20.70" waitingCount="1" stopTime="0.00" timeLoss="32.72" rerouteNo="0" devices="tripinfo_s10_in_rick.0" vType="rickshaw" speedFactor="1.05" vaporized=""/>
    <tripinfo id="s10_in_rick.1" depart="45.00" departLane="-1170388412#0_0" departPos="2.90" departSpeed="0.00" departDelay="0.00" arrival="161.60" arrivalLane="151829692#1_0" arrivalPos="49.23" arrivalSpeed="11.08" duration="116.60" routeLength="1007.59" waitingTime="9.90" waitingCount="1" stopTime="0.00" timeLoss="24.89" rerouteNo="0" devices="tripinfo_s10_in_rick.1" vType="rickshaw" speedFactor="1.06" vaporized=""/>
    <tripinfo id="hw_s_bike.0" depart="5.20" departLane="177566553#6_0" departPos="2.10" departSpeed="0.00" departDelay="5.20" arrival="173.90" arrivalLane="183255900#1_1" arrivalPos="24.62" arrivalSpeed="19.84" duration="168.70" routeLength="2245.57" waitingTime="0.00" waitingCount="0" stopTime="0.00" timeLoss="10.47" rerouteNo="0" devices="tripinfo_hw_s_bike.0" vType="motorbike" speedFactor="1.01" vaporized=""/>
    <tripinfo id="hw_s_car.0" depart="6.20" departLane="177566553#6_0" departPos="4.60" departSpeed="0.00" departDelay="6.20" arrival="174.40" arrivalLane="183255900#1_0" arrivalPos="24.62" arrivalSpeed="16.57" duration="168.20" routeLength="2243.07" waitingTime="0.00" waitingCount="0" stopTime="0.00" timeLoss="6.84" rerouteNo="0" devices="tripinfo_hw_s_car.0" vType="car" speedFactor="1.08" vaporized=""/>
    <tripinfo id="hw_s_car.1" depart="16.90" departLane="177566553#6_0" departPos="4.60" departSpeed="0.00" departDelay="2.50" arrival="178.80" arrivalLane="183255900#1_0" arrivalPos="24.62" arrivalSpeed="16.63" duration="161.90" routeLength="2243.07" waitingTime="0.00" waitingCount="0" stopTime="0.00" timeLoss="8.63" rerouteNo="0" devices="tripinfo_hw_s_car.1" vType="car" speedFactor="1.18" vaporized=""/>
    <tripinfo id="hw_bus.0" depart="0.00" departLane="177566553#6_0" departPos="10.60" departSpeed="0.00" departDelay="0.00" arrival="192.50" arrivalLane="183255900#1_0" arrivalPos="24.62" arrivalSpeed="13.85" duration="192.50" routeLength="2237.07" waitingTime="0.00" waitingCount="0" stopTime="0.00" timeLoss="10.79" rerouteNo="0" devices="tripinfo_hw_bus.0" vType="bus" speedFactor="1.00" vaporized=""/>
    <tripinfo id="hw_s_bike.1" depart="19.40" departLane="177566553#6_0" departPos="2.10" departSpeed="0.00" departDelay="1.40" arrival="194.20" arrivalLane="183255900#1_0" arrivalPos="24.62" arrivalSpeed="18.10" duration="174.80" routeLength="2245.57" waitingTime="0.00" waitingCount="0" stopTime="0.00" timeLoss="12.57" rerouteNo="0" devices="tripinfo_hw_s_bike.1" vType="motorbike" speedFactor="0.97" vaporized=""/>
    <tripinfo id="s10_in_rick.2" depart="92.00" departLane="-1170388412#0_0" departPos="2.90" departSpeed="0.00" departDelay="2.00" arrival="218.70" arrivalLane="151829692#1_0" arrivalPos="49.23" arrivalSpeed="11.05" duration="126.70" routeLength="1007.59" waitingTime="23.50" waitingCount="1" stopTime="0.00" timeLoss="35.21" rerouteNo="0" devices="tripinfo_s10_in_rick.2" vType="rickshaw" speedFactor="1.12" vaporized=""/>
    <tripinfo id="hw_s_bike.3" depart="55.40" departLane="177566553#6_0" departPos="2.10" departSpeed="0.00" departDelay="1.40" arrival="239.40" arrivalLane="183255900#1_0" arrivalPos="24.62" arrivalSpeed="19.79" duration="184.00" routeLength="2245.57" waitingTime="20.60" waitingCount="1" stopTime="0.00" timeLoss="38.53" rerouteNo="0" devices="tripinfo_hw_s_bike.3" vType="motorbike" speedFactor="1.15" vaporized=""/>
    <tripinfo id="hw_s_bike.2" depart="37.40" departLane="177566553#6_0" departPos="2.10" departSpeed="0.00" departDelay="1.40" arrival="244.60" arrivalLane="183255900#1_0" arrivalPos="24.62" arrivalSpeed="19.99" duration="207.20" routeLength="2245.57" waitingTime="41.80" waitingCount="1" stopTime="0.00" timeLoss="56.06" rerouteNo="0" devices="tripinfo_hw_s_bike.2" vType="motorbike" speedFactor="1.08" vaporized=""/>
    <tripinfo id="hw_s_car.3" depart="45.60" departLane="177566553#6_0" departPos="4.60" departSpeed="0.00" departDelay="2.40" arrival="262.10" arrivalLane="183255900#1_0" arrivalPos="24.62" arrivalSpeed="16.61" duration="216.50" routeLength="2243.07" waitingTime="29.70" waitingCount="1" stopTime="0.00" timeLoss="49.47" rerouteNo="0" devices="tripinfo_hw_s_car.3" vType="car" speedFactor="1.02" vaporized=""/>
    <tripinfo id="hw_s_bike.4" depart="75.90" departLane="177566553#6_0" departPos="2.10" departSpeed="0.00" departDelay="3.90" arrival="262.10" arrivalLane="183255900#1_1" arrivalPos="24.62" arrivalSpeed="19.93" duration="186.20" routeLength="2245.57" waitingTime="2.10" waitingCount="1" stopTime="0.00" timeLoss="28.28" rerouteNo="0" devices="tripinfo_hw_s_bike.4" vType="motorbike" speedFactor="1.01" vaporized=""/>
    <tripinfo id="hw_s_car.4" depart="60.10" departLane="177566553#6_0" departPos="4.60" departSpeed="0.00" departDelay="2.50" arrival="264.20" arrivalLane="183255900#1_0" arrivalPos="24.62" arrivalSpeed="16.60" duration="204.10" routeLength="2243.07" waitingTime="15.00" waitingCount="2" stopTime="0.00" timeLoss="36.43" rerouteNo="0" devices="tripinfo_hw_s_car.4" vType="car" speedFactor="1.02" vaporized=""/>
    <tripinfo id="hw_s_car.5" depart="76.90" departLane="177566553#6_0" departPos="4.60" departSpeed="0.00" departDelay="4.90" arrival="267.90" arrivalLane="183255900#1_0" arrivalPos="24.62" arrivalSpeed="16.61" duration="191.00" routeLength="2243.07" waitingTime="0.00" waitingCount="0" stopTime="0.00" timeLoss="25.13" rerouteNo="0" devices="tripinfo_hw_s_car.5" vType="car" speedFactor="1.03" vaporized=""/>
    <tripinfo id="hw_s_bike.5" depart="91.40" departLane="177566553#6_0" departPos="2.10" departSpeed="0.00" departDelay="1.40" arrival="275.20" arrivalLane="183255900#1_0" arrivalPos="24.62" arrivalSpeed="19.91" duration="183.80" routeLength="2245.57" waitingTime="0.00" waitingCount="0" stopTime="0.00" timeLoss="28.24" rerouteNo="0" devices="tripinfo_hw_s_bike.5" vType="motorbike" speedFactor="1.04" vaporized=""/>
    <tripinfo id="hw_s_bike.6" depart="109.40" departLane="177566553#6_0" departPos="2.10" departSpeed="0.00" departDelay="1.40" arrival="276.90" arrivalLane="183255900#1_1" arrivalPos="24.62" arrivalSpeed="19.84" duration="167.50" routeLength="2245.57" waitingTime="0.00" waitingCount="0" stopTime="0.00" timeLoss="21.41" rerouteNo="0" devices="tripinfo_hw_s_bike.6" vType="motorbike" speedFactor="1.14" vaporized=""/>
    <tripinfo id="hw_s_car.2" depart="31.20" departLane="177566553#6_0" departPos="4.60" departSpeed="0.00" departDelay="2.40" arrival="280.00" arrivalLane="183255900#1_0" arrivalPos="24.62" arrivalSpeed="16.59" duration="248.80" routeLength="2243.07" waitingTime="47.30" waitingCount="1" stopTime="0.00" timeLoss="61.23" rerouteNo="0" devices="tripinfo_hw_s_car.2" vType="car" speedFactor="0.85" vaporized=""/>
    <tripinfo id="hw_s_car.6" depart="88.90" departLane="177566553#6_0" departPos="4.60" departSpeed="0.00" departDelay="2.50" arrival="291.40" arrivalLane="183255900#1_0" arrivalPos="24.62" arrivalSpeed="16.62" duration="202.50" routeLength="2243.07" waitingTime="0.00" waitingCount="0" stopTime="0.00" timeLoss="9.89" rerouteNo="0" devices="tripinfo_hw_s_car.6" vType="car" speedFactor="0.82" vaporized=""/>
    <tripinfo id="hw_s_car.8" depart="117.70" departLane="177566553#6_0" departPos="4.60" departSpeed="0.00" departDelay="2.50" arrival="293.10" arrivalLane="183255900#1_0" arrivalPos="24.62" arrivalSpeed="16.59" duration="175.40" routeLength="2243.07" waitingTime="0.00" waitingCount="0" stopTime="0.00" timeLoss="8.92" rerouteNo="0" devices="tripinfo_hw_s_car.8" vType="car" speedFactor="1.03" vaporized=""/>
    <tripinfo id="hw_s_car.7" depart="103.20" departLane="177566553#6_0" departPos="4.60" departSpeed="0.00" departDelay="2.40" arrival="293.90" arrivalLane="183255900#1_1" arrivalPos="24.62" arrivalSpeed="16.63" duration="190.70" routeLength="2243.07" waitingTime="0.00" waitingCount="0" stopTime="0.00" timeLoss="12.72" rerouteNo="0" devices="tripinfo_hw_s_car.7" vType="car" speedFactor="0.93" vaporized=""/>
    <tripinfo id="hw_s_bike.7" depart="127.40" departLane="177566553#6_0" departPos="2.10" departSpeed="0.00" departDelay="1.40" arrival="334.60" arrivalLane="183255900#1_0" arrivalPos="24.62" arrivalSpeed="19.78" duration="207.20" routeLength="2245.57" waitingTime="41.90" waitingCount="1" stopTime="0.00" timeLoss="55.75" rerouteNo="0" devices="tripinfo_hw_s_bike.7" vType="motorbike" speedFactor="1.08" vaporized=""/>
    <tripinfo id="hw_s_bike.8" depart="147.70" departLane="177566553#6_0" departPos="2.10" departSpeed="0.00" departDelay="3.70" arrival="349.40" arrivalLane="183255900#1_1" arrivalPos="24.62" arrivalSpeed="19.85" duration="201.70" routeLength="2245.57" waitingTime="19.20" waitingCount="1" stopTime="0.00" timeLoss="44.63" rerouteNo="0" devices="tripinfo_hw_s_bike.8" vType="motorbike" speedFactor="1.02" vaporized=""/>
    <tripinfo id="hw_s_bike.9" depart="163.30" departLane="177566553#6_0" departPos="2.10" departSpeed="0.00" departDelay="1.30" arrival="351.10" arrivalLane="183255900#1_1" arrivalPos="24.62" arrivalSpeed="19.86" duration="187.80" routeLength="2245.57" waitingTime="3.60" waitingCount="1" stopTime="0.00" timeLoss="32.78" rerouteNo="0" devices="tripinfo_hw_s_bike.9" vType="motorbike" speedFactor="1.04" vaporized=""/>
    <tripinfo id="hw_s_car.10" depart="148.60" departLane="177566553#6_0" departPos="4.60" departSpeed="0.00" departDelay="4.60" arrival="352.00" arrivalLane="183255900#1_0" arrivalPos="24.62" arrivalSpeed="16.66" duration="203.40" routeLength="2243.07" waitingTime="16.70" waitingCount="1" stopTime="0.00" timeLoss="34.26" rerouteNo="0" devices="tripinfo_hw_s_car.10" vType="car" speedFactor="1.00" vaporized=""/>
    <tripinfo id="hw_s_car.9" depart="132.10" departLane="177566553#6_0" departPos="4.60" departSpeed="0.00" departDelay="2.50" arrival="356.40" arrivalLane="183255900#1_0" arrivalPos="24.62" arrivalSpeed="16.63" duration="224.30" routeLength="2243.07" waitingTime="33.90" waitingCount="1" stopTime="0.00" timeLoss="64.12" rerouteNo="0" devices="tripinfo_hw_s_car.9" vType="car" speedFactor="1.10" vaporized=""/>
    <tripinfo id="hw_s_car.11" depart="160.80" departLane="177566553#6_0" departPos="4.60" departSpeed="0.00" departDelay="2.40" arrival="358.70" arrivalLane="183255900#1_0" arrivalPos="24.62" arrivalSpeed="16.69" duration="197.90" routeLength="2243.07" waitingTime="3.70" waitingCount="1" stopTime="0.00" timeLoss="37.33" rerouteNo="0" devices="tripinfo_hw_s_car.11" vType="car" speedFactor="1.09" vaporized=""/>
    <tripinfo id="hw_s_car.12" depart="175.30" departLane="177566553#6_0" departPos="4.60" departSpeed="0.00" departDelay="2.50" arrival="366.70" arrivalLane="183255900#1_0" arrivalPos="24.62" arrivalSpeed="16.61" duration="191.40" routeLength="2243.07" waitingTime="0.00" waitingCount="0" stopTime="0.00" timeLoss="34.99" rerouteNo="0" devices="tripinfo_hw_s_car.12" vType="car" speedFactor="1.14" vaporized=""/>
    <tripinfo id="hw_s_bike.11" depart="199.40" departLane="177566553#6_0" departPos="2.10" departSpeed="0.00" departDelay="1.40" arrival="371.40" arrivalLane="183255900#1_1" arrivalPos="24.62" arrivalSpeed="19.77" duration="172.00" routeLength="2245.57" waitingTime="0.00" waitingCount="0" stopTime="0.00" timeLoss="14.52" rerouteNo="0" devices="tripinfo_hw_s_bike.11" vType="motorbike" speedFactor="1.02" vaporized=""/>
    <tripinfo id="hw_bus.1" depart="180.00" departLane="177566553#6_0" departPos="10.60" departSpeed="0.00" departDelay="0.00" arrival="372.40" arrivalLane="183255900#1_0" arrivalPos="24.62" arrivalSpeed="13.88" duration="192.40" routeLength="2237.07" waitingTime="0.00" waitingCount="0" stopTime="0.00" timeLoss="10.65" rerouteNo="0" devices="tripinfo_hw_bus.1" vType="bus" speedFactor="1.00" vaporized=""/>
    <tripinfo id="hw_s_bike.10" depart="183.20" departLane="177566553#6_0" departPos="2.10" departSpeed="0.00" departDelay="3.20" arrival="374.00" arrivalLane="183255900#1_0" arrivalPos="24.62" arrivalSpeed="17.30" duration="190.80" routeLength="2245.57" waitingTime="0.00" waitingCount="0" stopTime="0.00" timeLoss="16.79" rerouteNo="0" devices="tripinfo_hw_s_bike.10" vType="motorbike" speedFactor="0.88" vaporized=""/>
    <tripinfo id="s8_in_bike.0" depart="0.00" departLane="-553958820#10.154_0" departPos="2.10" departSpeed="0.00" departDelay="0.00" arrival="385.70" arrivalLane="151829692#1_0" arrivalPos="49.23" arrivalSpeed="19.77" duration="385.70" routeLength="1168.99" waitingTime="312.00" waitingCount="2" stopTime="0.00" timeLoss="326.16" rerouteNo="0" devices="tripinfo_s8_in_bike.0" vType="motorbike" speedFactor="0.93" vaporized=""/>
    <tripinfo id="hw_s_car.13" depart="191.50" departLane="177566553#6_0" departPos="4.60" departSpeed="0.00" departDelay="4.30" arrival="385.70" arrivalLane="183255900#1_0" arrivalPos="24.62" arrivalSpeed="16.62" duration="194.20" routeLength="2243.07" waitingTime="0.00" waitingCount="0" stopTime="0.00" timeLoss="8.38" rerouteNo="0" devices="tripinfo_hw_s_car.13" vType="car" speedFactor="0.87" vaporized=""/>
    <tripinfo id="sn_bike.0" depart="4.20" departLane="1189082075#5.102_0" departPos="2.10" departSpeed="0.00" departDelay="4.20" arrival="387.50" arrivalLane="151829692#1_0" arrivalPos="49.23" arrivalSpeed="19.90" duration="383.30" routeLength="1453.08" waitingTime="300.10" waitingCount="1" stopTime="0.00" timeLoss="310.01" rerouteNo="0" devices="tripinfo_sn_bike.0" vType="motorbike" speedFactor="1.01" vaporized=""/>
    <tripinfo id="hw_s_car.14" depart="204.10" departLane="177566553#6_0" departPos="4.60" departSpeed="0.00" departDelay="2.50" arrival="388.20" arrivalLane="183255900#1_0" arrivalPos="24.62" arrivalSpeed="16.61" duration="184.10" routeLength="2243.07" waitingTime="0.00" waitingCount="0" stopTime="0.00" timeLoss="11.08" rerouteNo="0" devices="tripinfo_hw_s_car.14" vType="car" speedFactor="0.97" vaporized=""/>
</tripinfos>
