<?xml version="1.0" encoding="UTF-8"?>

<!-- generated on 2026-07-06T12:43:35.430208+05:30 by Eclipse SUMO GUI 1.26.0
<sumoConfiguration xmlns:xsi="http://www.w3.org/2001/XMLSchema-instance" xsi:noNamespaceSchemaLocation="http://sumo.dlr.de/xsd/sumoConfiguration.xsd">

    <input>
        <net-file value="C:\DEV\ATLAS\sumo_map\adaptive\../network/smart5_main.net.xml"/>
        <route-files value="C:\DEV\ATLAS\sumo_map\adaptive\../network/smart5.rou.xml"/>
        <additional-files value="C:\DEV\ATLAS\sumo_map\adaptive\../network/smart5.poly.xml"/>
    </input>

    <output>
        <summary-output value="C:\DEV\ATLAS\sumo_map\adaptive\results/summary_smart.xml"/>
        <tripinfo-output value="C:\DEV\ATLAS\sumo_map\adaptive\results/tripinfo_smart.xml"/>
    </output>

    <time>
        <begin value="0"/>
        <end value="1000"/>
        <step-length value="0.1"/>
    </time>

    <traci_server>
        <remote-port value="50556"/>
    </traci_server>

</sumoConfiguration>
-->

<tripinfos xmlns:xsi="http://www.w3.org/2001/XMLSchema-instance" xsi:noNamespaceSchemaLocation="http://sumo.dlr.de/xsd/tripinfo_file.xsd">
    <tripinfo id="s8_out_bike.0" depart="1.60" departLane="1189082075#5.102_0" departPos="2.10" departSpeed="0.00" departDelay="1.60" arrival="76.30" arrivalLane="553958820#10_0" arrivalPos="61.27" arrivalSpeed="19.77" duration="74.70" routeLength="1255.51" waitingTime="0.00" waitingCount="0" stopTime="0.00" timeLoss="11.22" rerouteNo="0" devices="tripinfo_s8_out_bike.0" vType="motorbike" speedFactor="0.94" vaporized=""/>
    <tripinfo id="s10_in_bike.0" depart="0.00" departLane="-1170388412#0_0" departPos="2.10" departSpeed="0.00" departDelay="0.00" arrival="90.60" arrivalLane="183255900#1_0" arrivalPos="24.62" arrivalSpeed="19.89" duration="90.60" routeLength="1198.17" waitingTime="6.10" waitingCount="2" stopTime="0.00" timeLoss="21.51" rerouteNo="0" devices="tripinfo_s10_in_bike.0" vType="motorbike" speedFactor="1.09" vaporized=""/>
    <tripinfo id="s10_out_car.0" depart="0.00" departLane="1189082075#5.102_0" departPos="4.60" departSpeed="0.00" departDelay="0.00" arrival="97.60" arrivalLane="1170388412#0_0" arrivalPos="277.72" arrivalSpeed="13.71" duration="97.60" routeLength="1186.21" waitingTime="8.70" waitingCount="1" stopTime="0.00" timeLoss="20.47" rerouteNo="0" devices="tripinfo_s10_out_car.0" vType="car" speedFactor="0.99" vaporized=""/>
    <tripinfo id="s10_in_car.0" depart="2.20" departLane="-1170388412#0_0" departPos="4.60" departSpeed="0.00" departDelay="2.20" arrival="98.70" arrivalLane="183255900#1_0" arrivalPos="24.62" arrivalSpeed="16.59" duration="96.50" routeLength="1195.67" waitingTime="9.00" waitingCount="1" stopTime="0.00" timeLoss="18.30" rerouteNo="0" devices="tripinfo_s10_in_car.0" vType="car" speedFactor="1.03" vaporized=""/>
    <tripinfo id="s8_in_bike.0" depart="0.00" departLane="-553958820#10.154_0" departPos="2.10" departSpeed="0.00" departDelay="0.00" arrival="116.10" arrivalLane="151829692#1_0" arrivalPos="49.23" arrivalSpeed="19.82" duration="116.10" routeLength="1192.31" waitingTime="35.10" waitingCount="2" stopTime="0.00" timeLoss="54.74" rerouteNo="0" devices="tripinfo_s8_in_bike.0" vType="motorbike" speedFactor="0.93" vaporized=""/>
    <tripinfo id="sn_bike.0" depart="4.20" departLane="1189082075#5.102_0" departPos="2.10" departSpeed="0.00" departDelay="4.20" arrival="121.80" arrivalLane="151829692#1_1" arrivalPos="49.23" arrivalSpeed="19.78" duration="117.60" routeLength="1482.97" waitingTime="14.60" waitingCount="2" stopTime="0.00" timeLoss="42.65" rerouteNo="0" devices="tripinfo_sn_bike.0" vType="motorbike" speedFactor="1.01" vaporized=""/>
    <tripinfo id="ns_bike.0" depart="1.60" departLane="1465267571#5_0" departPos="2.10" departSpeed="0.00" departDelay="1.60" arrival="122.90" arrivalLane="183255900#1_0" arrivalPos="24.62" arrivalSpeed="19.96" duration="121.30" routeLength="1495.30" waitingTime="22.50" waitingCount="3" stopTime="0.00" timeLoss="44.55" rerouteNo="0" devices="tripinfo_ns_bike.0" vType="motorbike" speedFactor="1.05" vaporized=""/>
    <tripinfo id="ns_car.0" depart="7.10" departLane="1465267571#5_0" departPos="4.60" departSpeed="0.00" departDelay="7.10" arrival="128.30" arrivalLane="183255900#1_0" arrivalPos="24.62" arrivalSpeed="16.58" duration="121.20" routeLength="1492.80" waitingTime="8.70" waitingCount="2" stopTime="0.00" timeLoss="29.53" rerouteNo="0" devices="tripinfo_ns_car.0" vType="car" speedFactor="0.89" vaporized=""/>
    <tripinfo id="s10_in_rick.0" depart="4.20" departLane="-1170388412#0_0" departPos="2.90" departSpeed="0.00" departDelay="4.20" arrival="128.80" arrivalLane="151829692#1_0" arrivalPos="49.23" arrivalSpeed="11.02" duration="124.60" routeLength="1007.59" waitingTime="20.60" waitingCount="1" stopTime="0.00" timeLoss="32.77" rerouteNo="0" devices="tripinfo_s10_in_rick.0" vType="rickshaw" speedFactor="1.05" vaporized=""/>
    <tripinfo id="s10_in_bike.1" depart="24.00" departLane="-1170388412#0_0" departPos="2.10" departSpeed="0.00" departDelay="0.00" arrival="152.10" arrivalLane="183255900#1_0" arrivalPos="24.62" arrivalSpeed="19.82" duration="128.10" routeLength="1198.17" waitingTime="44.70" waitingCount="2" stopTime="0.00" timeLoss="57.46" rerouteNo="0" devices="tripinfo_s10_in_bike.1" vType="motorbike" speedFactor="1.04" vaporized=""/>
    <tripinfo id="s10_in_rick.1" depart="45.00" departLane="-1170388412#0_0" departPos="2.90" departSpeed="0.00" departDelay="0.00" arrival="161.50" arrivalLane="151829692#1_0" arrivalPos="49.23" arrivalSpeed="11.00" duration="116.50" routeLength="1007.59" waitingTime="10.00" waitingCount="1" stopTime="0.00" timeLoss="24.78" rerouteNo="0" devices="tripinfo_s10_in_rick.1" vType="rickshaw" speedFactor="1.06" vaporized=""/>
    <tripinfo id="s8_in_car.0" depart="2.20" departLane="-553958820#10.154_0" departPos="4.60" departSpeed="0.00" departDelay="2.20" arrival="162.80" arrivalLane="151829692#1_0" arrivalPos="49.23" arrivalSpeed="13.63" duration="160.60" routeLength="1189.81" waitingTime="58.70" waitingCount="2" stopTime="0.00" timeLoss="87.85" rerouteNo="0" devices="tripinfo_s8_in_car.0" vType="car" speedFactor="0.88" vaporized=""/>
    <tripinfo id="s8_out_bike.1" depart="32.10" departLane="1189082075#5.102_0" departPos="2.10" departSpeed="0.00" departDelay="8.10" arrival="197.20" arrivalLane="553958820#10_0" arrivalPos="61.27" arrivalSpeed="19.93" duration="165.10" routeLength="1255.51" waitingTime="59.10" waitingCount="3" stopTime="0.00" timeLoss="101.64" rerouteNo="0" devices="tripinfo_s8_out_bike.1" vType="motorbike" speedFactor="0.90" vaporized=""/>
    <tripinfo id="s8_out_car.0" depart="16.50" departLane="1465267571#5_0" departPos="4.60" departSpeed="0.00" departDelay="16.50" arrival="200.00" arrivalLane="553958820#10_0" arrivalPos="61.27" arrivalSpeed="16.60" duration="183.50" routeLength="1211.47" waitingTime="59.40" waitingCount="4" stopTime="0.00" timeLoss="110.61" rerouteNo="0" devices="tripinfo_s8_out_car.0" vType="car" speedFactor="1.16" vaporized=""/>
    <tripinfo id="s8_out_bike.2" depart="49.90" departLane="1189082075#5.102_0" departPos="2.10" departSpeed="0.00" departDelay="1.90" arrival="201.20" arrivalLane="553958820#10_0" arrivalPos="61.27" arrivalSpeed="18.96" duration="151.30" routeLength="1255.51" waitingTime="19.60" waitingCount="2" stopTime="0.00" timeLoss="87.97" rerouteNo="0" devices="tripinfo_s8_out_bike.2" vType="motorbike" speedFactor="1.09" vaporized=""/>
    <tripinfo id="s10_out_bike.0" depart="15.20" departLane="1465267571#5_0" departPos="2.10" departSpeed="0.00" departDelay="15.20" arrival="204.00" arrivalLane="1170388412#0_0" arrivalPos="277.72" arrivalSpeed="15.51" duration="188.80" routeLength="1095.73" waitingTime="87.30" waitingCount="4" stopTime="0.00" timeLoss="127.27" rerouteNo="0" devices="tripinfo_s10_out_bike.0" vType="motorbike" speedFactor="1.12" vaporized=""/>
    <tripinfo id="s8_in_rick.0" depart="4.20" departLane="-553958820#10.154_0" departPos="2.90" departSpeed="0.00" departDelay="4.20" arrival="204.40" arrivalLane="183255900#1_0" arrivalPos="24.62" arrivalSpeed="11.01" duration="200.20" routeLength="1311.55" waitingTime="55.80" waitingCount="3" stopTime="0.00" timeLoss="81.22" rerouteNo="0" devices="tripinfo_s8_in_rick.0" vType="rickshaw" speedFactor="0.94" vaporized=""/>
    <tripinfo id="s8_in_rick.1" depart="45.00" departLane="-553958820#10.154_0" departPos="2.90" departSpeed="0.00" departDelay="0.00" arrival="205.00" arrivalLane="183255900#1_1" arrivalPos="24.62" arrivalSpeed="11.06" duration="160.00" routeLength="1311.55" waitingTime="9.40" waitingCount="1" stopTime="0.00" timeLoss="41.04" rerouteNo="0" devices="tripinfo_s8_in_rick.1" vType="rickshaw" speedFactor="0.96" vaporized=""/>
    <tripinfo id="ns_car.1" depart="19.00" departLane="1465267571#5_0" departPos="4.60" departSpeed="0.00" departDelay="11.80" arrival="205.70" arrivalLane="183255900#1_0" arrivalPos="24.62" arrivalSpeed="13.52" duration="186.70" routeLength="1492.80" waitingTime="34.40" waitingCount="1" stopTime="0.00" timeLoss="94.86" rerouteNo="0" devices="tripinfo_ns_car.1" vType="car" speedFactor="0.87" vaporized=""/>
    <tripinfo id="s8_in_bike.1" depart="24.00" departLane="-553958820#10.154_0" departPos="2.10" departSpeed="0.00" departDelay="0.00" arrival="205.70" arrivalLane="151829692#1_0" arrivalPos="49.23" arrivalSpeed="19.87" duration="181.70" routeLength="1192.31" waitingTime="71.90" waitingCount="3" stopTime="0.00" timeLoss="120.54" rerouteNo="0" devices="tripinfo_s8_in_bike.1" vType="motorbike" speedFactor="1.00" vaporized=""/>
    <tripinfo id="ns_bike.1" depart="20.60" departLane="1465267571#5_0" departPos="2.10" departSpeed="0.00" departDelay="12.60" arrival="206.20" arrivalLane="183255900#1_1" arrivalPos="24.62" arrivalSpeed="13.61" duration="185.60" routeLength="1495.30" waitingTime="36.40" waitingCount="2" stopTime="0.00" timeLoss="108.02" rerouteNo="0" devices="tripinfo_ns_bike.1" vType="motorbike" speedFactor="0.95" vaporized=""/>
    <tripinfo id="ns_bike.2" depart="23.20" departLane="1465267571#5_0" departPos="2.10" departSpeed="0.00" departDelay="7.20" arrival="207.30" arrivalLane="183255900#1_1" arrivalPos="24.62" arrivalSpeed="15.38" duration="184.10" routeLength="1495.30" waitingTime="29.00" waitingCount="2" stopTime="0.00" timeLoss="107.96" rerouteNo="0" devices="tripinfo_ns_bike.2" vType="motorbike" speedFactor="1.17" vaporized=""/>
    <tripinfo id="ns_rickshaw.0" depart="8.50" departLane="1465267571#5_0" departPos="2.90" departSpeed="0.00" departDelay="8.50" arrival="207.80" arrivalLane="183255900#1_0" arrivalPos="24.62" arrivalSpeed="11.05" duration="199.30" routeLength="1494.50" waitingTime="41.60" waitingCount="1" stopTime="0.00" timeLoss="64.58" rerouteNo="0" devices="tripinfo_ns_rickshaw.0" vType="rickshaw" speedFactor="0.94" vaporized=""/>
    <tripinfo id="ns_car.3" depart="29.10" departLane="1465267571#5_0" departPos="4.60" departSpeed="0.00" departDelay="7.50" arrival="208.50" arrivalLane="183255900#1_1" arrivalPos="24.62" arrivalSpeed="16.34" duration="179.40" routeLength="1492.80" waitingTime="21.40" waitingCount="2" stopTime="0.00" timeLoss="88.17" rerouteNo="0" devices="tripinfo_ns_car.3" vType="car" speedFactor="0.96" vaporized=""/>
    <tripinfo id="sn_car.1" depart="19.40" departLane="1189082075#5.102_0" departPos="4.60" departSpeed="0.00" departDelay="12.20" arrival="209.10" arrivalLane="151829692#1_0" arrivalPos="49.23" arrivalSpeed="16.65" duration="189.70" routeLength="1476.85" waitingTime="71.90" waitingCount="3" stopTime="0.00" timeLoss="100.56" rerouteNo="0" devices="tripinfo_sn_car.1" vType="car" speedFactor="0.92" vaporized=""/>
    <tripinfo id="ns_bus.0" depart="3.50" departLane="1465267571#5_0" departPos="10.60" departSpeed="0.00" departDelay="3.50" arrival="209.20" arrivalLane="183255900#1_0" arrivalPos="24.62" arrivalSpeed="12.29" duration="205.70" routeLength="1490.22" waitingTime="44.90" waitingCount="1" stopTime="0.00" timeLoss="98.36" rerouteNo="0" devices="tripinfo_ns_bus.0" vType="bus" speedFactor="1.00" vaporized=""/>
    <tripinfo id="ns_car.2" depart="21.50" departLane="1465267571#5_0" departPos="4.60" departSpeed="0.00" departDelay="7.10" arrival="209.70" arrivalLane="183255900#1_1" arrivalPos="24.62" arrivalSpeed="16.64" duration="188.20" routeLength="1496.22" waitingTime="32.70" waitingCount="2" stopTime="0.00" timeLoss="98.16" rerouteNo="0" devices="tripinfo_ns_car.2" vType="car" speedFactor="1.15" vaporized=""/>
    <tripinfo id="s8_in_car.1" depart="30.00" departLane="-553958820#10.154_0" departPos="4.60" departSpeed="0.00" departDelay="0.00" arrival="210.60" arrivalLane="151829692#1_0" arrivalPos="49.23" arrivalSpeed="16.67" duration="180.60" routeLength="1189.81" waitingTime="57.90" waitingCount="2" stopTime="0.00" timeLoss="108.24" rerouteNo="0" devices="tripinfo_s8_in_car.1" vType="car" speedFactor="1.00" vaporized=""/>
    <tripinfo id="hw_s_bike.0" depart="5.20" departLane="177566553#6_0" departPos="2.10" departSpeed="0.00" departDelay="5.20" arrival="210.80" arrivalLane="183255900#1_1" arrivalPos="24.62" arrivalSpeed="18.51" duration="205.60" routeLength="2245.57" waitingTime="1.40" waitingCount="1" stopTime="0.00" timeLoss="47.35" rerouteNo="0" devices="tripinfo_hw_s_bike.0" vType="motorbike" speedFactor="1.01" vaporized=""/>
    <tripinfo id="ns_truck.0" depart="12.50" departLane="1465267571#5_0" departPos="8.10" departSpeed="0.00" departDelay="12.50" arrival="211.40" arrivalLane="183255900#1_0" arrivalPos="24.62" arrivalSpeed="13.67" duration="198.90" routeLength="1492.72" waitingTime="36.90" waitingCount="1" stopTime="0.00" timeLoss="90.80" rerouteNo="0" devices="tripinfo_ns_truck.0" vType="truck" speedFactor="0.93" vaporized=""/>
    <tripinfo id="sn_bike.1" depart="20.70" departLane="1189082075#5.102_0" departPos="2.10" departSpeed="0.00" departDelay="12.70" arrival="211.80" arrivalLane="151829692#1_0" arrivalPos="49.23" arrivalSpeed="19.43" duration="191.10" routeLength="1479.35" waitingTime="58.50" waitingCount="3" stopTime="0.00" timeLoss="116.56" rerouteNo="0" devices="tripinfo_sn_bike.1" vType="motorbike" speedFactor="1.13" vaporized=""/>
    <tripinfo id="sn_car.0" depart="9.70" departLane="1189082075#5.102_0" departPos="4.60" departSpeed="0.00" departDelay="9.70" arrival="213.40" arrivalLane="151829692#1_0" arrivalPos="49.23" arrivalSpeed="16.67" duration="203.70" routeLength="1476.73" waitingTime="83.80" waitingCount="3" stopTime="0.00" timeLoss="114.60" rerouteNo="0" devices="tripinfo_sn_car.0" vType="car" speedFactor="0.97" vaporized=""/>
    <tripinfo id="sn_car.2" depart="22.90" departLane="1189082075#5.102_0" departPos="4.60" departSpeed="0.00" departDelay="8.50" arrival="215.00" arrivalLane="151829692#1_0" arrivalPos="49.23" arrivalSpeed="16.66" duration="192.10" routeLength="1476.85" waitingTime="49.80" waitingCount="2" stopTime="0.00" timeLoss="102.98" rerouteNo="0" devices="tripinfo_sn_car.2" vType="car" speedFactor="1.01" vaporized=""/>
    <tripinfo id="sn_bike.2" depart="24.50" departLane="1189082075#5.102_0" departPos="2.10" departSpeed="0.00" departDelay="8.50" arrival="216.20" arrivalLane="151829692#1_0" arrivalPos="49.23" arrivalSpeed="19.32" duration="191.70" routeLength="1479.35" waitingTime="54.10" waitingCount="2" stopTime="0.00" timeLoss="117.00" rerouteNo="0" devices="tripinfo_sn_bike.2" vType="motorbike" speedFactor="0.99" vaporized=""/>
    <tripinfo id="sn_car.3" depart="30.40" departLane="1189082075#5.102_0" departPos="4.60" departSpeed="0.00" departDelay="8.80" arrival="217.70" arrivalLane="151829692#1_0" arrivalPos="49.23" arrivalSpeed="16.59" duration="187.30" routeLength="1476.85" waitingTime="46.70" waitingCount="2" stopTime="0.00" timeLoss="98.33" rerouteNo="0" devices="tripinfo_sn_car.3" vType="car" speedFactor="1.09" vaporized=""/>
    <tripinfo id="hw_s_bike.1" depart="19.40" departLane="177566553#6_0" departPos="2.10" departSpeed="0.00" departDelay="1.40" arrival="217.80" arrivalLane="183255900#1_1" arrivalPos="24.62" arrivalSpeed="19.89" duration="198.40" routeLength="2245.57" waitingTime="13.70" waitingCount="1" stopTime="0.00" timeLoss="36.11" rerouteNo="0" devices="tripinfo_hw_s_bike.1" vType="motorbike" speedFactor="0.97" vaporized=""/>
    <tripinfo id="hw_s_car.0" depart="6.20" departLane="177566553#6_0" departPos="4.60" departSpeed="0.00" departDelay="6.20" arrival="218.80" arrivalLane="183255900#1_0" arrivalPos="24.62" arrivalSpeed="16.59" duration="212.60" routeLength="2243.07" waitingTime="25.60" waitingCount="2" stopTime="0.00" timeLoss="51.24" rerouteNo="0" devices="tripinfo_hw_s_car.0" vType="car" speedFactor="1.08" vaporized=""/>
    <tripinfo id="sn_bike.3" depart="33.10" departLane="1189082075#5.102_0" departPos="2.10" departSpeed="0.00" departDelay="9.10" arrival="219.10" arrivalLane="151829692#1_0" arrivalPos="49.23" arrivalSpeed="19.91" duration="186.00" routeLength="1479.35" waitingTime="43.80" waitingCount="3" stopTime="0.00" timeLoss="111.03" rerouteNo="0" devices="tripinfo_sn_bike.3" vType="motorbike" speedFactor="0.88" vaporized=""/>
    <tripinfo id="sn_bike.5" depart="44.30" departLane="1189082075#5.102_0" departPos="2.10" departSpeed="0.00" departDelay="4.30" arrival="220.30" arrivalLane="151829692#1_0" arrivalPos="49.23" arrivalSpeed="19.92" duration="176.00" routeLength="1479.35" waitingTime="31.80" waitingCount="3" stopTime="0.00" timeLoss="101.09" rerouteNo="0" devices="tripinfo_sn_bike.5" vType="motorbike" speedFactor="0.91" vaporized=""/>
    <tripinfo id="sn_bike.4" depart="39.30" departLane="1189082075#5.102_0" departPos="2.10" departSpeed="0.00" departDelay="7.30" arrival="221.30" arrivalLane="151829692#1_0" arrivalPos="49.23" arrivalSpeed="19.99" duration="182.00" routeLength="1479.35" waitingTime="37.40" waitingCount="3" stopTime="0.00" timeLoss="107.25" rerouteNo="0" devices="tripinfo_sn_bike.4" vType="motorbike" speedFactor="1.02" vaporized=""/>
    <tripinfo id="hw_s_car.1" depart="16.90" departLane="177566553#6_0" departPos="4.60" departSpeed="0.00" departDelay="2.50" arrival="223.00" arrivalLane="183255900#1_0" arrivalPos="24.62" arrivalSpeed="16.66" duration="206.10" routeLength="2243.07" waitingTime="26.40" waitingCount="2" stopTime="0.00" timeLoss="52.68" rerouteNo="0" devices="tripinfo_hw_s_car.1" vType="car" speedFactor="1.18" vaporized=""/>
    <tripinfo id="sn_bus.0" depart="6.00" departLane="1189082075#5.102_0" departPos="10.60" departSpeed="0.00" departDelay="6.00" arrival="225.50" arrivalLane="151829692#1_0" arrivalPos="49.23" arrivalSpeed="13.88" duration="219.50" routeLength="1470.73" waitingTime="62.10" waitingCount="3" stopTime="0.00" timeLoss="113.19" rerouteNo="0" devices="tripinfo_sn_bus.0" vType="bus" speedFactor="1.00" vaporized=""/>
    <tripinfo id="s10_out_bike.1" depart="31.50" departLane="1465267571#5_0" departPos="2.10" departSpeed="0.00" departDelay="7.50" arrival="226.70" arrivalLane="1170388412#0_0" arrivalPos="277.72" arrivalSpeed="15.08" duration="195.20" routeLength="1099.15" waitingTime="69.30" waitingCount="4" stopTime="0.00" timeLoss="132.63" rerouteNo="0" devices="tripinfo_s10_out_bike.1" vType="motorbike" speedFactor="1.09" vaporized=""/>
    <tripinfo id="hw_bus.0" depart="0.00" departLane="177566553#6_0" departPos="10.60" departSpeed="0.00" departDelay="0.00" arrival="228.20" arrivalLane="183255900#1_0" arrivalPos="24.62" arrivalSpeed="13.86" duration="228.20" routeLength="2237.07" waitingTime="16.20" waitingCount="1" stopTime="0.00" timeLoss="46.46" rerouteNo="0" devices="tripinfo_hw_bus.0" vType="bus" speedFactor="1.00" vaporized=""/>
    <tripinfo id="sn_rickshaw.0" depart="11.20" departLane="1189082075#5.102_0" departPos="2.90" departSpeed="0.00" departDelay="11.20" arrival="230.00" arrivalLane="151829692#1_0" arrivalPos="49.23" arrivalSpeed="11.09" duration="218.80" routeLength="1478.43" waitingTime="45.40" waitingCount="2" stopTime="0.00" timeLoss="85.27" rerouteNo="0" devices="tripinfo_sn_rickshaw.0" vType="rickshaw" speedFactor="0.89" vaporized=""/>
    <tripinfo id="s10_in_rick.2" depart="92.00" departLane="-1170388412#0_0" departPos="2.90" departSpeed="0.00" departDelay="2.00" arrival="231.40" arrivalLane="151829692#1_0" arrivalPos="49.23" arrivalSpeed="11.00" duration="139.40" routeLength="1007.59" waitingTime="21.60" waitingCount="2" stopTime="0.00" timeLoss="47.92" rerouteNo="0" devices="tripinfo_s10_in_rick.2" vType="rickshaw" speedFactor="1.12" vaporized=""/>
    <tripinfo id="hw_n_bike.0" depart="2.40" departLane="177566553#6_0" departPos="2.10" departSpeed="0.00" departDelay="2.40" arrival="232.70" arrivalLane="151829692#1_0" arrivalPos="49.23" arrivalSpeed="13.62" duration="230.30" routeLength="2180.20" waitingTime="28.80" waitingCount="3" stopTime="0.00" timeLoss="81.82" rerouteNo="0" devices="tripinfo_hw_n_bike.0" vType="motorbike" speedFactor="1.06" vaporized=""/>
    <tripinfo id="hw_n_bike.1" depart="18.50" departLane="177566553#6_0" departPos="2.10" departSpeed="0.00" departDelay="0.50" arrival="233.70" arrivalLane="151829692#1_0" arrivalPos="49.23" arrivalSpeed="15.35" duration="215.20" routeLength="2176.05" waitingTime="17.50" waitingCount="2" stopTime="0.00" timeLoss="62.99" rerouteNo="0" devices="tripinfo_hw_n_bike.1" vType="motorbike" speedFactor="1.02" vaporized=""/>
    <tripinfo id="s8_in_bike.3" depart="72.00" departLane="-553958820#10.154_0" departPos="2.10" departSpeed="0.00" departDelay="0.00" arrival="234.70" arrivalLane="151829692#1_0" arrivalPos="49.23" arrivalSpeed="16.91" duration="162.70" routeLength="1192.31" waitingTime="57.20" waitingCount="2" stopTime="0.00" timeLoss="101.92" rerouteNo="0" devices="tripinfo_s8_in_bike.3" vType="motorbike" speedFactor="1.10" vaporized=""/>
    <tripinfo id="s_hw_car.0" depart="2.60" departLane="1189082075#5.102_0" departPos="4.60" departSpeed="0.00" departDelay="2.60" arrival="235.60" arrivalLane="1265532934#1_0" arrivalPos="99.94" arrivalSpeed="16.68" duration="233.00" routeLength="2291.93" waitingTime="35.60" waitingCount="3" stopTime="0.00" timeLoss="63.23" rerouteNo="0" devices="tripinfo_s_hw_car.0" vType="car" speedFactor="1.02" vaporized=""/>
    <tripinfo id="sn_truck.0" depart="15.30" departLane="1189082075#5.102_0" departPos="8.10" departSpeed="0.00" departDelay="15.30" arrival="236.80" arrivalLane="151829692#1_0" arrivalPos="49.23" arrivalSpeed="13.89" duration="221.50" routeLength="1473.23" waitingTime="41.50" waitingCount="2" stopTime="0.00" timeLoss="114.92" rerouteNo="0" devices="tripinfo_sn_truck.0" vType="truck" speedFactor="0.91" vaporized=""/>
    <tripinfo id="sn_bike.6" depart="50.80" departLane="1189082075#5.102_0" departPos="2.10" departSpeed="0.00" departDelay="2.80" arrival="238.20" arrivalLane="151829692#1_0" arrivalPos="49.23" arrivalSpeed="17.20" duration="187.40" routeLength="1479.35" waitingTime="52.30" waitingCount="3" stopTime="0.00" timeLoss="112.71" rerouteNo="0" devices="tripinfo_sn_bike.6" vType="motorbike" speedFactor="1.03" vaporized=""/>
    <tripinfo id="hw_n_car.1" depart="14.40" departLane="177566553#6_0" departPos="4.60" departSpeed="0.00" departDelay="0.00" arrival="239.50" arrivalLane="151829692#1_0" arrivalPos="49.23" arrivalSpeed="16.59" duration="225.10" routeLength="2173.55" waitingTime="12.40" waitingCount="1" stopTime="0.00" timeLoss="53.33" rerouteNo="0" devices="tripinfo_hw_n_car.1" vType="car" speedFactor="0.93" vaporized=""/>
    <tripinfo id="sn_bike.7" depart="57.00" departLane="1189082075#5.102_0" departPos="2.10" departSpeed="0.00" departDelay="1.00" arrival="240.60" arrivalLane="151829692#1_0" arrivalPos="49.23" arrivalSpeed="18.33" duration="183.60" routeLength="1479.35" waitingTime="58.20" waitingCount="4" stopTime="0.00" timeLoss="108.86" rerouteNo="0" devices="tripinfo_sn_bike.7" vType="motorbike" speedFactor="1.01" vaporized=""/>
    <tripinfo id="hw_n_car.0" depart="3.60" departLane="177566553#6_0" departPos="4.60" departSpeed="0.00" departDelay="3.60" arrival="240.70" arrivalLane="151829692#1_1" arrivalPos="49.23" arrivalSpeed="16.60" duration="237.10" routeLength="2181.32" waitingTime="9.50" waitingCount="1" stopTime="0.00" timeLoss="65.90" rerouteNo="0" devices="tripinfo_hw_n_car.0" vType="car" speedFactor="0.94" vaporized=""/>
    <tripinfo id="n_hw_car.0" depart="0.00" departLane="1465267571#5_0" departPos="4.60" departSpeed="0.00" departDelay="0.00" arrival="240.70" arrivalLane="1265532934#1_0" arrivalPos="99.94" arrivalSpeed="16.64" duration="240.70" routeLength="2169.77" waitingTime="35.90" waitingCount="3" stopTime="0.00" timeLoss="55.72" rerouteNo="0" devices="tripinfo_n_hw_car.0" vType="car" speedFactor="0.83" vaporized=""/>
    <tripinfo id="s8_in_car.2" depart="60.00" departLane="-553958820#10.154_0" departPos="4.60" departSpeed="0.00" departDelay="0.00" arrival="241.90" arrivalLane="151829692#1_0" arrivalPos="49.23" arrivalSpeed="16.63" duration="181.90" routeLength="1189.81" waitingTime="43.60" waitingCount="1" stopTime="0.00" timeLoss="109.16" rerouteNo="0" devices="tripinfo_s8_in_car.2" vType="car" speedFactor="0.91" vaporized=""/>
    <tripinfo id="s8_in_car.3" depart="90.00" departLane="-553958820#10.154_0" departPos="4.60" departSpeed="0.00" departDelay="0.00" arrival="242.30" arrivalLane="151829692#1_1" arrivalPos="49.23" arrivalSpeed="16.70" duration="152.30" routeLength="1193.43" waitingTime="27.80" waitingCount="2" stopTime="0.00" timeLoss="79.83" rerouteNo="0" devices="tripinfo_s8_in_car.3" vType="car" speedFactor="1.00" vaporized=""/>
    <tripinfo id="s8_in_bike.2" depart="48.00" departLane="-553958820#10.154_0" departPos="2.10" departSpeed="0.00" departDelay="0.00" arrival="243.00" arrivalLane="151829692#1_0" arrivalPos="49.23" arrivalSpeed="18.39" duration="195.00" routeLength="1192.31" waitingTime="47.60" waitingCount="1" stopTime="0.00" timeLoss="133.91" rerouteNo="0" devices="tripinfo_s8_in_bike.2" vType="motorbike" speedFactor="1.01" vaporized=""/>
    <tripinfo id="sn_car.6" depart="48.30" departLane="1189082075#5.102_0" departPos="4.60" departSpeed="0.00" departDelay="5.10" arrival="244.20" arrivalLane="151829692#1_1" arrivalPos="49.23" arrivalSpeed="16.69" duration="195.90" routeLength="1480.47" waitingTime="48.90" waitingCount="2" stopTime="0.00" timeLoss="106.55" rerouteNo="0" devices="tripinfo_sn_car.6" vType="car" speedFactor="0.94" vaporized=""/>
    <tripinfo id="sn_car.5" depart="42.70" departLane="1189082075#5.102_0" departPos="4.60" departSpeed="0.00" departDelay="6.70" arrival="244.40" arrivalLane="151829692#1_0" arrivalPos="49.23" arrivalSpeed="16.59" duration="201.70" routeLength="1476.85" waitingTime="58.80" waitingCount="3" stopTime="0.00" timeLoss="112.48" rerouteNo="0" devices="tripinfo_sn_car.5" vType="car" speedFactor="0.94" vaporized=""/>
    <tripinfo id="ns_bike.3" depart="30.70" departLane="1465267571#5_0" departPos="2.10" departSpeed="0.00" departDelay="6.70" arrival="244.50" arrivalLane="183255900#1_0" arrivalPos="24.62" arrivalSpeed="19.95" duration="213.80" routeLength="1495.30" waitingTime="75.10" waitingCount="4" stopTime="0.00" timeLoss="136.95" rerouteNo="0" devices="tripinfo_ns_bike.3" vType="motorbike" speedFactor="1.04" vaporized=""/>
    <tripinfo id="sn_car.4" depart="35.30" departLane="1189082075#5.102_0" departPos="4.60" departSpeed="0.00" departDelay="6.50" arrival="245.70" arrivalLane="151829692#1_0" arrivalPos="49.23" arrivalSpeed="16.60" duration="210.40" routeLength="1476.73" waitingTime="68.50" waitingCount="4" stopTime="0.00" timeLoss="121.34" rerouteNo="0" devices="tripinfo_sn_car.4" vType="car" speedFactor="1.02" vaporized=""/>
    <tripinfo id="ns_bike.6" depart="48.10" departLane="1465267571#5_0" departPos="2.10" departSpeed="0.00" departDelay="0.10" arrival="247.40" arrivalLane="183255900#1_0" arrivalPos="24.62" arrivalSpeed="19.94" duration="199.30" routeLength="1495.30" waitingTime="64.20" waitingCount="2" stopTime="0.00" timeLoss="122.02" rerouteNo="0" devices="tripinfo_ns_bike.6" vType="motorbike" speedFactor="0.98" vaporized=""/>
    <tripinfo id="ns_bike.8" depart="64.70" departLane="1465267571#5_0" departPos="2.10" departSpeed="0.00" departDelay="0.70" arrival="248.60" arrivalLane="183255900#1_1" arrivalPos="24.62" arrivalSpeed="19.94" duration="183.90" routeLength="1495.30" waitingTime="52.90" waitingCount="2" stopTime="0.00" timeLoss="107.19" rerouteNo="0" devices="tripinfo_ns_bike.8" vType="motorbike" speedFactor="1.06" vaporized=""/>
    <tripinfo id="ns_bike.4" depart="37.70" departLane="1465267571#5_0" departPos="2.10" departSpeed="0.00" departDelay="5.70" arrival="250.00" arrivalLane="183255900#1_1" arrivalPos="24.62" arrivalSpeed="19.92" duration="212.30" routeLength="1495.30" waitingTime="55.50" waitingCount="3" stopTime="0.00" timeLoss="135.95" rerouteNo="0" devices="tripinfo_ns_bike.4" vType="motorbike" speedFactor="1.14" vaporized=""/>
    <tripinfo id="ns_bike.9" depart="73.60" departLane="1465267571#5_0" departPos="2.10" departSpeed="0.00" departDelay="1.60" arrival="254.40" arrivalLane="183255900#1_1" arrivalPos="24.62" arrivalSpeed="19.90" duration="180.80" routeLength="1495.30" waitingTime="46.90" waitingCount="2" stopTime="0.00" timeLoss="103.21" rerouteNo="0" devices="tripinfo_ns_bike.9" vType="motorbike" speedFactor="0.96" vaporized=""/>
    <tripinfo id="ns_bike.7" depart="56.00" departLane="1465267571#5_0" departPos="2.10" departSpeed="0.00" departDelay="0.00" arrival="255.60" arrivalLane="183255900#1_1" arrivalPos="24.62" arrivalSpeed="19.97" duration="199.60" routeLength="1495.30" waitingTime="54.10" waitingCount="2" stopTime="0.00" timeLoss="122.66" rerouteNo="0" devices="tripinfo_ns_bike.7" vType="motorbike" speedFactor="1.04" vaporized=""/>