<?xml version="1.0" encoding="UTF-8"?>

<!-- generated on 2026-07-07T10:47:06.914695+05:30 by Eclipse SUMO GUI 1.26.0
<sumoConfiguration xmlns:xsi="http://www.w3.org/2001/XMLSchema-instance" xsi:noNamespaceSchemaLocation="http://sumo.dlr.de/xsd/sumoConfiguration.xsd">

    <input>
        <net-file value="C:\DEV\ATLAS\sumo_map\adaptive\../network/smart5_main.net.xml"/>
        <route-files value="C:\DEV\ATLAS\sumo_map\adaptive\../network/smart5.rou.xml"/>
        <additional-files value="C:\DEV\ATLAS\sumo_map\adaptive\../network/smart5.poly.xml"/>
    </input>

    <output>
        <summary-output value="C:\DEV\ATLAS\sumo_map\adaptive\results/summary_smart.xml"/>
        <tripinfo-output value="C:\DEV\ATLAS\sumo_map\adaptive\results/tripinfo_smart.xml"/>
    </output>

    <time>
        <begin value="0"/>
        <end value="1000"/>
        <step-length value="0.1"/>
    </time>

    <traci_server>
        <remote-port value="38951"/>
    </traci_server>

</sumoConfiguration>
-->

<tripinfos xmlns:xsi="http://www.w3.org/2001/XMLSchema-instance" xsi:noNamespaceSchemaLocation="http://sumo.dlr.de/xsd/tripinfo_file.xsd">
    <tripinfo id="s8_out_bike.0" depart="1.60" departLane="1189082075#5.102_0" departPos="2.10" departSpeed="0.00" departDelay="1.60" arrival="76.00" arrivalLane="553958820#10_0" arrivalPos="61.27" arrivalSpeed="19.84" duration="74.40" routeLength="1255.51" waitingTime="0.00" waitingCount="0" stopTime="0.00" timeLoss="10.92" rerouteNo="0" devices="tripinfo_s8_out_bike.0" vType="motorbike" speedFactor="0.94" vaporized=""/>
    <tripinfo id="s10_in_bike.0" depart="0.00" departLane="-1170388412#0_0" departPos="2.10" departSpeed="0.00" departDelay="0.00" arrival="89.80" arrivalLane="183255900#1_0" arrivalPos="24.62" arrivalSpeed="19.86" duration="89.80" routeLength="1198.17" waitingTime="5.70" waitingCount="2" stopTime="0.00" timeLoss="20.65" rerouteNo="0" devices="tripinfo_s10_in_bike.0" vType="motorbike" speedFactor="1.09" vaporized=""/>
    <tripinfo id="s10_out_car.0" depart="0.00" departLane="1189082075#5.102_0" departPos="4.60" departSpeed="0.00" departDelay="0.00" arrival="97.60" arrivalLane="1170388412#0_0" arrivalPos="277.72" arrivalSpeed="13.72" duration="97.60" routeLength="1186.21" waitingTime="8.60" waitingCount="1" stopTime="0.00" timeLoss="20.43" rerouteNo="0" devices="tripinfo_s10_out_car.0" vType="car" speedFactor="0.99" vaporized=""/>
    <tripinfo id="s10_in_car.0" depart="2.20" departLane="-1170388412#0_0" departPos="4.60" departSpeed="0.00" departDelay="2.20" arrival="97.90" arrivalLane="183255900#1_0" arrivalPos="24.62" arrivalSpeed="16.58" duration="95.70" routeLength="1195.67" waitingTime="8.30" waitingCount="1" stopTime="0.00" timeLoss="17.56" rerouteNo="0" devices="tripinfo_s10_in_car.0" vType="car" speedFactor="1.03" vaporized=""/>
    <tripinfo id="s8_in_bike.0" depart="0.00" departLane="-553958820#10.154_0" departPos="2.10" departSpeed="0.00" departDelay="0.00" arrival="116.00" arrivalLane="151829692#1_0" arrivalPos="49.23" arrivalSpeed="19.77" duration="116.00" routeLength="1192.31" waitingTime="35.20" waitingCount="2" stopTime="0.00" timeLoss="54.60" rerouteNo="0" devices="tripinfo_s8_in_bike.0" vType="motorbike" speedFactor="0.93" vaporized=""/>
    <tripinfo id="sn_bike.0" depart="4.20" departLane="1189082075#5.102_0" departPos="2.10" departSpeed="0.00" departDelay="4.20" arrival="117.50" arrivalLane="151829692#1_0" arrivalPos="49.23" arrivalSpeed="19.97" duration="113.30" routeLength="1479.35" waitingTime="14.00" waitingCount="2" stopTime="0.00" timeLoss="38.58" rerouteNo="0" devices="tripinfo_sn_bike.0" vType="motorbike" speedFactor="1.01" vaporized=""/>
    <tripinfo id="ns_bike.0" depart="1.60" departLane="1465267571#5_0" departPos="2.10" departSpeed="0.00" departDelay="1.60" arrival="122.70" arrivalLane="183255900#1_0" arrivalPos="24.62" arrivalSpeed="19.89" duration="121.10" routeLength="1495.30" waitingTime="22.00" waitingCount="3" stopTime="0.00" timeLoss="44.35" rerouteNo="0" devices="tripinfo_ns_bike.0" vType="motorbike" speedFactor="1.05" vaporized=""/>
    <tripinfo id="ns_car.0" depart="7.10" departLane="1465267571#5_0" departPos="4.60" departSpeed="0.00" departDelay="7.10" arrival="127.80" arrivalLane="183255900#1_0" arrivalPos="24.62" arrivalSpeed="16.70" duration="120.70" routeLength="1492.80" waitingTime="7.60" waitingCount="2" stopTime="0.00" timeLoss="28.99" rerouteNo="0" devices="tripinfo_ns_car.0" vType="car" speedFactor="0.89" vaporized=""/>
    <tripinfo id="s10_in_rick.0" depart="4.20" departLane="-1170388412#0_0" departPos="2.90" departSpeed="0.00" departDelay="4.20" arrival="128.80" arrivalLane="151829692#1_0" arrivalPos="49.23" arrivalSpeed="11.06" duration="124.60" routeLength="1007.59" waitingTime="20.30" waitingCount="1" stopTime="0.00" timeLoss="32.78" rerouteNo="0" devices="tripinfo_s10_in_rick.0" vType="rickshaw" speedFactor="1.05" vaporized=""/>
    <tripinfo id="s10_in_bike.1" depart="24.00" departLane="-1170388412#0_0" departPos="2.10" departSpeed="0.00" departDelay="0.00" arrival="151.40" arrivalLane="183255900#1_0" arrivalPos="24.62" arrivalSpeed="19.85" duration="127.40" routeLength="1198.17" waitingTime="43.80" waitingCount="2" stopTime="0.00" timeLoss="56.81" rerouteNo="0" devices="tripinfo_s10_in_bike.1" vType="motorbike" speedFactor="1.04" vaporized=""/>
    <tripinfo id="s10_in_rick.1" depart="45.00" departLane="-1170388412#0_0" departPos="2.90" departSpeed="0.00" departDelay="0.00" arrival="161.60" arrivalLane="151829692#1_0" arrivalPos="49.23" arrivalSpeed="11.00" duration="116.60" routeLength="1007.59" waitingTime="10.10" waitingCount="1" stopTime="0.00" timeLoss="24.85" rerouteNo="0" devices="tripinfo_s10_in_rick.1" vType="rickshaw" speedFactor="1.06" vaporized=""/>
    <tripinfo id="s8_in_car.0" depart="2.20" departLane="-553958820#10.154_0" departPos="4.60" departSpeed="0.00" departDelay="2.20" arrival="162.90" arrivalLane="151829692#1_0" arrivalPos="49.23" arrivalSpeed="13.70" duration="160.70" routeLength="1189.81" waitingTime="57.90" waitingCount="2" stopTime="0.00" timeLoss="87.93" rerouteNo="0" devices="tripinfo_s8_in_car.0" vType="car" speedFactor="0.88" vaporized=""/>
    <tripinfo id="s8_out_bike.1" depart="32.10" departLane="1189082075#5.102_0" departPos="2.10" departSpeed="0.00" departDelay="8.10" arrival="199.40" arrivalLane="553958820#10_0" arrivalPos="61.27" arrivalSpeed="19.89" duration="167.30" routeLength="1255.51" waitingTime="62.60" waitingCount="3" stopTime="0.00" timeLoss="103.84" rerouteNo="0" devices="tripinfo_s8_out_bike.1" vType="motorbike" speedFactor="0.90" vaporized=""/>
    <tripinfo id="s8_out_car.0" depart="16.50" departLane="1465267571#5_0" departPos="4.60" departSpeed="0.00" departDelay="16.50" arrival="201.90" arrivalLane="553958820#10_0" arrivalPos="61.27" arrivalSpeed="16.64" duration="185.40" routeLength="1211.47" waitingTime="61.20" waitingCount="4" stopTime="0.00" timeLoss="112.50" rerouteNo="0" devices="tripinfo_s8_out_car.0" vType="car" speedFactor="1.16" vaporized=""/>
    <tripinfo id="s8_in_rick.0" depart="4.20" departLane="-553958820#10.154_0" departPos="2.90" departSpeed="0.00" departDelay="4.20" arrival="203.40" arrivalLane="183255900#1_0" arrivalPos="24.62" arrivalSpeed="11.04" duration="199.20" routeLength="1311.55" waitingTime="54.90" waitingCount="3" stopTime="0.00" timeLoss="80.29" rerouteNo="0" devices="tripinfo_s8_in_rick.0" vType="rickshaw" speedFactor="0.94" vaporized=""/>
    <tripinfo id="s10_out_bike.0" depart="15.20" departLane="1465267571#5_0" departPos="2.10" departSpeed="0.00" departDelay="15.20" arrival="203.80" arrivalLane="1170388412#0_0" arrivalPos="277.72" arrivalSpeed="15.54" duration="188.60" routeLength="1095.73" waitingTime="87.30" waitingCount="4" stopTime="0.00" timeLoss="127.09" rerouteNo="0" devices="tripinfo_s10_out_bike.0" vType="motorbike" speedFactor="1.12" vaporized=""/>
    <tripinfo id="s8_in_rick.1" depart="45.00" departLane="-553958820#10.154_0" departPos="2.90" departSpeed="0.00" departDelay="0.00" arrival="204.10" arrivalLane="183255900#1_1" arrivalPos="24.62" arrivalSpeed="11.03" duration="159.10" routeLength="1311.55" waitingTime="9.50" waitingCount="1" stopTime="0.00" timeLoss="40.10" rerouteNo="0" devices="tripinfo_s8_in_rick.1" vType="rickshaw" speedFactor="0.96" vaporized=""/>
    <tripinfo id="ns_truck.0" depart="12.50" departLane="1465267571#5_0" departPos="8.10" departSpeed="0.00" departDelay="12.50" arrival="205.10" arrivalLane="183255900#1_0" arrivalPos="24.62" arrivalSpeed="12.35" duration="192.60" routeLength="1492.72" waitingTime="36.90" waitingCount="1" stopTime="0.00" timeLoss="84.57" rerouteNo="0" devices="tripinfo_ns_truck.0" vType="truck" speedFactor="0.93" vaporized=""/>
    <tripinfo id="s8_in_bike.1" depart="24.00" departLane="-553958820#10.154_0" departPos="2.10" departSpeed="0.00" departDelay="0.00" arrival="205.40" arrivalLane="151829692#1_0" arrivalPos="49.23" arrivalSpeed="19.93" duration="181.40" routeLength="1192.31" waitingTime="71.40" waitingCount="3" stopTime="0.00" timeLoss="120.33" rerouteNo="0" devices="tripinfo_s8_in_bike.1" vType="motorbike" speedFactor="1.00" vaporized=""/>
    <tripinfo id="ns_rickshaw.0" depart="8.50" departLane="1465267571#5_0" departPos="2.90" departSpeed="0.00" departDelay="8.50" arrival="205.90" arrivalLane="183255900#1_1" arrivalPos="24.62" arrivalSpeed="11.02" duration="197.40" routeLength="1494.50" waitingTime="41.40" waitingCount="1" stopTime="0.00" timeLoss="62.61" rerouteNo="0" devices="tripinfo_ns_rickshaw.0" vType="rickshaw" speedFactor="0.94" vaporized=""/>
    <tripinfo id="ns_car.2" depart="21.50" departLane="1465267571#5_0" departPos="4.60" departSpeed="0.00" departDelay="7.10" arrival="206.70" arrivalLane="183255900#1_0" arrivalPos="24.62" arrivalSpeed="15.28" duration="185.20" routeLength="1496.22" waitingTime="32.50" waitingCount="2" stopTime="0.00" timeLoss="95.28" rerouteNo="0" devices="tripinfo_ns_car.2" vType="car" speedFactor="1.15" vaporized=""/>
    <tripinfo id="ns_bus.0" depart="3.50" departLane="1465267571#5_0" departPos="10.60" departSpeed="0.00" departDelay="3.50" arrival="207.30" arrivalLane="183255900#1_1" arrivalPos="24.62" arrivalSpeed="12.20" duration="203.80" routeLength="1490.22" waitingTime="43.90" waitingCount="1" stopTime="0.00" timeLoss="96.38" rerouteNo="0" devices="tripinfo_ns_bus.0" vType="bus" speedFactor="1.00" vaporized=""/>
    <tripinfo id="ns_car.1" depart="19.00" departLane="1465267571#5_0" departPos="4.60" departSpeed="0.00" departDelay="11.80" arrival="209.10" arrivalLane="183255900#1_0" arrivalPos="24.62" arrivalSpeed="15.34" duration="190.10" routeLength="1492.80" waitingTime="34.20" waitingCount="1" stopTime="0.00" timeLoss="98.14" rerouteNo="0" devices="tripinfo_ns_car.1" vType="car" speedFactor="0.87" vaporized=""/>
    <tripinfo id="sn_car.1" depart="19.40" departLane="1189082075#5.102_0" departPos="4.60" departSpeed="0.00" departDelay="12.20" arrival="209.30" arrivalLane="151829692#1_0" arrivalPos="49.23" arrivalSpeed="16.66" duration="189.90" routeLength="1476.85" waitingTime="71.80" waitingCount="3" stopTime="0.00" timeLoss="100.70" rerouteNo="0" devices="tripinfo_sn_car.1" vType="car" speedFactor="0.92" vaporized=""/>
    <tripinfo id="ns_bike.1" depart="20.60" departLane="1465267571#5_0" departPos="2.10" departSpeed="0.00" departDelay="12.60" arrival="210.20" arrivalLane="183255900#1_1" arrivalPos="24.62" arrivalSpeed="17.65" duration="189.60" routeLength="1495.30" waitingTime="36.30" waitingCount="2" stopTime="0.00" timeLoss="111.92" rerouteNo="0" devices="tripinfo_ns_bike.1" vType="motorbike" speedFactor="0.95" vaporized=""/>
    <tripinfo id="sn_bike.1" depart="20.70" departLane="1189082075#5.102_0" departPos="2.10" departSpeed="0.00" departDelay="12.70" arrival="210.50" arrivalLane="151829692#1_0" arrivalPos="49.23" arrivalSpeed="19.27" duration="189.80" routeLength="1479.35" waitingTime="58.00" waitingCount="3" stopTime="0.00" timeLoss="115.21" rerouteNo="0" devices="tripinfo_sn_bike.1" vType="motorbike" speedFactor="1.13" vaporized=""/>
    <tripinfo id="ns_rickshaw.1" depart="26.10" departLane="1465267571#5_0" departPos="2.90" departSpeed="0.00" departDelay="6.10" arrival="210.50" arrivalLane="183255900#1_0" arrivalPos="24.62" arrivalSpeed="11.01" duration="184.40" routeLength="1497.92" waitingTime="16.00" waitingCount="2" stopTime="0.00" timeLoss="49.44" rerouteNo="0" devices="tripinfo_ns_rickshaw.1" vType="rickshaw" speedFactor="0.90" vaporized=""/>
    <tripinfo id="ns_car.3" depart="29.10" departLane="1465267571#5_0" departPos="4.60" departSpeed="0.00" departDelay="7.50" arrival="211.80" arrivalLane="183255900#1_0" arrivalPos="24.62" arrivalSpeed="13.54" duration="182.70" routeLength="1492.80" waitingTime="21.40" waitingCount="2" stopTime="0.00" timeLoss="91.50" rerouteNo="0" devices="tripinfo_ns_car.3" vType="car" speedFactor="0.96" vaporized=""/>
    <tripinfo id="s8_in_car.1" depart="30.00" departLane="-553958820#10.154_0" departPos="4.60" departSpeed="0.00" departDelay="0.00" arrival="212.00" arrivalLane="151829692#1_0" arrivalPos="49.23" arrivalSpeed="16.59" duration="182.00" routeLength="1189.81" waitingTime="58.00" waitingCount="2" stopTime="0.00" timeLoss="109.64" rerouteNo="0" devices="tripinfo_s8_in_car.1" vType="car" speedFactor="1.00" vaporized=""/>
    <tripinfo id="sn_car.0" depart="9.70" departLane="1189082075#5.102_0" departPos="4.60" departSpeed="0.00" departDelay="9.70" arrival="213.40" arrivalLane="151829692#1_0" arrivalPos="49.23" arrivalSpeed="16.57" duration="203.70" routeLength="1476.73" waitingTime="83.90" waitingCount="3" stopTime="0.00" timeLoss="114.63" rerouteNo="0" devices="tripinfo_sn_car.0" vType="car" speedFactor="0.97" vaporized=""/>
    <tripinfo id="ns_bike.2" depart="23.20" departLane="1465267571#5_0" departPos="2.10" departSpeed="0.00" departDelay="7.20" arrival="213.50" arrivalLane="183255900#1_0" arrivalPos="24.62" arrivalSpeed="19.91" duration="190.30" routeLength="1495.30" waitingTime="46.70" waitingCount="3" stopTime="0.00" timeLoss="114.28" rerouteNo="0" devices="tripinfo_ns_bike.2" vType="motorbike" speedFactor="1.17" vaporized=""/>
    <tripinfo id="sn_car.2" depart="22.90" departLane="1189082075#5.102_0" departPos="4.60" departSpeed="0.00" departDelay="8.50" arrival="214.90" arrivalLane="151829692#1_0" arrivalPos="49.23" arrivalSpeed="16.59" duration="192.00" routeLength="1476.85" waitingTime="50.40" waitingCount="2" stopTime="0.00" timeLoss="102.93" rerouteNo="0" devices="tripinfo_sn_car.2" vType="car" speedFactor="1.01" vaporized=""/>
    <tripinfo id="sn_bike.2" depart="24.50" departLane="1189082075#5.102_0" departPos="2.10" departSpeed="0.00" departDelay="8.50" arrival="216.20" arrivalLane="151829692#1_0" arrivalPos="49.23" arrivalSpeed="19.59" duration="191.70" routeLength="1479.35" waitingTime="54.50" waitingCount="2" stopTime="0.00" timeLoss="116.91" rerouteNo="0" devices="tripinfo_sn_bike.2" vType="motorbike" speedFactor="0.99" vaporized=""/>
    <tripinfo id="sn_car.3" depart="30.40" departLane="1189082075#5.102_0" departPos="4.60" departSpeed="0.00" departDelay="8.80" arrival="217.70" arrivalLane="151829692#1_0" arrivalPos="49.23" arrivalSpeed="16.64" duration="187.30" routeLength="1476.85" waitingTime="47.30" waitingCount="2" stopTime="0.00" timeLoss="98.32" rerouteNo="0" devices="tripinfo_sn_car.3" vType="car" speedFactor="1.09" vaporized=""/>
    <tripinfo id="hw_s_car.0" depart="6.20" departLane="177566553#6_0" departPos="4.60" departSpeed="0.00" departDelay="6.20" arrival="218.20" arrivalLane="183255900#1_0" arrivalPos="24.62" arrivalSpeed="16.59" duration="212.00" routeLength="2243.07" waitingTime="23.70" waitingCount="2" stopTime="0.00" timeLoss="50.72" rerouteNo="0" devices="tripinfo_hw_s_car.0" vType="car" speedFactor="1.08" vaporized=""/>
    <tripinfo id="sn_bike.3" depart="33.10" departLane="1189082075#5.102_0" departPos="2.10" departSpeed="0.00" departDelay="9.10" arrival="219.10" arrivalLane="151829692#1_0" arrivalPos="49.23" arrivalSpeed="19.94" duration="186.00" routeLength="1479.35" waitingTime="42.90" waitingCount="4" stopTime="0.00" timeLoss="111.08" rerouteNo="0" devices="tripinfo_sn_bike.3" vType="motorbike" speedFactor="0.88" vaporized=""/>
    <tripinfo id="hw_s_car.1" depart="16.90" departLane="177566553#6_0" departPos="4.60" departSpeed="0.00" departDelay="2.50" arrival="220.00" arrivalLane="183255900#1_1" arrivalPos="24.62" arrivalSpeed="16.69" duration="203.10" routeLength="2243.07" waitingTime="15.60" waitingCount="2" stopTime="0.00" timeLoss="49.71" rerouteNo="0" devices="tripinfo_hw_s_car.1" vType="car" speedFactor="1.18" vaporized=""/>
    <tripinfo id="hw_s_bike.0" depart="5.20" departLane="177566553#6_0" departPos="2.10" departSpeed="0.00" departDelay="5.20" arrival="221.30" arrivalLane="183255900#1_1" arrivalPos="24.62" arrivalSpeed="19.27" duration="216.10" routeLength="2245.57" waitingTime="15.70" waitingCount="2" stopTime="0.00" timeLoss="57.85" rerouteNo="0" devices="tripinfo_hw_s_bike.0" vType="motorbike" speedFactor="1.01" vaporized=""/>
    <tripinfo id="hw_s_bike.1" depart="19.40" departLane="177566553#6_0" departPos="2.10" departSpeed="0.00" departDelay="1.40" arrival="222.30" arrivalLane="183255900#1_0" arrivalPos="24.62" arrivalSpeed="19.80" duration="202.90" routeLength="2245.57" waitingTime="10.80" waitingCount="1" stopTime="0.00" timeLoss="40.61" rerouteNo="0" devices="tripinfo_hw_s_bike.1" vType="motorbike" speedFactor="0.97" vaporized=""/>
    <tripinfo id="sn_bus.0" depart="6.00" departLane="1189082075#5.102_0" departPos="10.60" departSpeed="0.00" departDelay="6.00" arrival="223.00" arrivalLane="151829692#1_0" arrivalPos="49.23" arrivalSpeed="13.85" duration="217.00" routeLength="1470.73" waitingTime="61.60" waitingCount="3" stopTime="0.00" timeLoss="110.75" rerouteNo="0" devices="tripinfo_sn_bus.0" vType="bus" speedFactor="1.00" vaporized=""/>
    <tripinfo id="s10_out_bike.1" depart="31.50" departLane="1465267571#5_0" departPos="2.10" departSpeed="0.00" departDelay="7.50" arrival="225.70" arrivalLane="1170388412#0_0" arrivalPos="277.72" arrivalSpeed="15.03" duration="194.20" routeLength="1099.15" waitingTime="72.80" waitingCount="4" stopTime="0.00" timeLoss="131.64" rerouteNo="0" devices="tripinfo_s10_out_bike.1" vType="motorbike" speedFactor="1.09" vaporized=""/>
    <tripinfo id="sn_rickshaw.0" depart="11.20" departLane="1189082075#5.102_0" departPos="2.90" departSpeed="0.00" departDelay="11.20" arrival="227.70" arrivalLane="151829692#1_0" arrivalPos="49.23" arrivalSpeed="11.00" duration="216.50" routeLength="1478.43" waitingTime="46.20" waitingCount="2" stopTime="0.00" timeLoss="82.90" rerouteNo="0" devices="tripinfo_sn_rickshaw.0" vType="rickshaw" speedFactor="0.89" vaporized=""/>
    <tripinfo id="hw_bus.0" depart="0.00" departLane="177566553#6_0" departPos="10.60" departSpeed="0.00" departDelay="0.00" arrival="228.40" arrivalLane="183255900#1_0" arrivalPos="24.62" arrivalSpeed="13.86" duration="228.40" routeLength="2237.07" waitingTime="13.10" waitingCount="1" stopTime="0.00" timeLoss="46.69" rerouteNo="0" devices="tripinfo_hw_bus.0" vType="bus" speedFactor="1.00" vaporized=""/>
    <tripinfo id="sn_truck.0" depart="15.30" departLane="1189082075#5.102_0" departPos="8.10" departSpeed="0.00" departDelay="15.30" arrival="229.40" arrivalLane="151829692#1_0" arrivalPos="49.23" arrivalSpeed="12.37" duration="214.10" routeLength="1473.23" waitingTime="43.70" waitingCount="2" stopTime="0.00" timeLoss="107.52" rerouteNo="0" devices="tripinfo_sn_truck.0" vType="truck" speedFactor="0.91" vaporized=""/>
    <tripinfo id="s10_in_rick.2" depart="92.00" departLane="-1170388412#0_0" departPos="2.90" departSpeed="0.00" departDelay="2.00" arrival="231.50" arrivalLane="151829692#1_0" arrivalPos="49.23" arrivalSpeed="11.06" duration="139.50" routeLength="1007.59" waitingTime="22.00" waitingCount="2" stopTime="0.00" timeLoss="47.94" rerouteNo="0" devices="tripinfo_s10_in_rick.2" vType="rickshaw" speedFactor="1.12" vaporized=""/>
    <tripinfo id="s8_in_bike.2" depart="48.00" departLane="-553958820#10.154_0" departPos="2.10" departSpeed="0.00" departDelay="0.00" arrival="232.70" arrivalLane="151829692#1_0" arrivalPos="49.23" arrivalSpeed="13.67" duration="184.70" routeLength="1192.31" waitingTime="47.40" waitingCount="1" stopTime="0.00" timeLoss="123.59" rerouteNo="0" devices="tripinfo_s8_in_bike.2" vType="motorbike" speedFactor="1.01" vaporized=""/>
    <tripinfo id="hw_n_bike.1" depart="18.50" departLane="177566553#6_0" departPos="2.10" departSpeed="0.00" departDelay="0.50" arrival="233.70" arrivalLane="151829692#1_0" arrivalPos="49.23" arrivalSpeed="15.28" duration="215.20" routeLength="2176.05" waitingTime="16.50" waitingCount="2" stopTime="0.00" timeLoss="63.03" rerouteNo="0" devices="tripinfo_hw_n_bike.1" vType="motorbike" speedFactor="1.02" vaporized=""/>
    <tripinfo id="hw_n_car.0" depart="3.60" departLane="177566553#6_0" departPos="4.60" departSpeed="0.00" departDelay="3.60" arrival="234.90" arrivalLane="151829692#1_0" arrivalPos="49.23" arrivalSpeed="16.52" duration="231.30" routeLength="2177.70" waitingTime="11.30" waitingCount="1" stopTime="0.00" timeLoss="60.29" rerouteNo="0" devices="tripinfo_hw_n_car.0" vType="car" speedFactor="0.94" vaporized=""/>
    <tripinfo id="s_hw_car.0" depart="2.60" departLane="1189082075#5.102_0" departPos="4.60" departSpeed="0.00" departDelay="2.60" arrival="235.60" arrivalLane="1265532934#1_0" arrivalPos="99.94" arrivalSpeed="16.64" duration="233.00" routeLength="2291.93" waitingTime="40.30" waitingCount="2" stopTime="0.00" timeLoss="63.30" rerouteNo="0" devices="tripinfo_s_hw_car.0" vType="car" speedFactor="1.02" vaporized=""/>
    <tripinfo id="hw_n_bike.0" depart="2.40" departLane="177566553#6_0" departPos="2.10" departSpeed="0.00" departDelay="2.40" arrival="236.00" arrivalLane="151829692#1_0" arrivalPos="49.23" arrivalSpeed="18.17" duration="233.60" routeLength="2180.20" waitingTime="30.20" waitingCount="3" stopTime="0.00" timeLoss="85.15" rerouteNo="0" devices="tripinfo_hw_n_bike.0" vType="motorbike" speedFactor="1.06" vaporized=""/>
    <tripinfo id="hw_n_car.1" depart="14.40" departLane="177566553#6_0" departPos="4.60" departSpeed="0.00" departDelay="0.00" arrival="237.20" arrivalLane="151829692#1_0" arrivalPos="49.23" arrivalSpeed="16.66" duration="222.80" routeLength="2177.70" waitingTime="9.80" waitingCount="1" stopTime="0.00" timeLoss="51.01" rerouteNo="0" devices="tripinfo_hw_n_car.1" vType="car" speedFactor="0.93" vaporized=""/>
    <tripinfo id="s8_in_bike.3" depart="72.00" departLane="-553958820#10.154_0" departPos="2.10" departSpeed="0.00" departDelay="0.00" arrival="238.30" arrivalLane="151829692#1_0" arrivalPos="49.23" arrivalSpeed="19.21" duration="166.30" routeLength="1192.31" waitingTime="56.30" waitingCount="4" stopTime="0.00" timeLoss="105.56" rerouteNo="0" devices="tripinfo_s8_in_bike.3" vType="motorbike" speedFactor="1.10" vaporized=""/>
    <tripinfo id="sn_bike.5" depart="44.30" departLane="1189082075#5.102_0" departPos="2.10" departSpeed="0.00" departDelay="4.30" arrival="239.30" arrivalLane="151829692#1_0" arrivalPos="49.23" arrivalSpeed="19.80" duration="195.00" routeLength="1479.35" waitingTime="63.40" waitingCount="3" stopTime="0.00" timeLoss="120.13" rerouteNo="0" devices="tripinfo_sn_bike.5" vType="motorbike" speedFactor="0.91" vaporized=""/>
    <tripinfo id="sn_bike.7" depart="56.90" departLane="1189082075#5.102_0" departPos="2.10" departSpeed="0.00" departDelay="0.90" arrival="239.30" arrivalLane="151829692#1_1" arrivalPos="49.23" arrivalSpeed="19.83" duration="182.40" routeLength="1482.97" waitingTime="41.40" waitingCount="1" stopTime="0.00" timeLoss="107.43" rerouteNo="0" devices="tripinfo_sn_bike.7" vType="motorbike" speedFactor="1.01" vaporized=""/>
    <tripinfo id="sn_car.5" depart="42.70" departLane="1189082075#5.102_0" departPos="4.60" departSpeed="0.00" departDelay="6.70" arrival="240.70" arrivalLane="151829692#1_0" arrivalPos="49.23" arrivalSpeed="16.63" duration="198.00" routeLength="1476.85" waitingTime="56.60" waitingCount="3" stopTime="0.00" timeLoss="108.81" rerouteNo="0" devices="tripinfo_sn_car.5" vType="car" speedFactor="0.94" vaporized=""/>
    <tripinfo id="sn_bike.6" depart="50.80" departLane="1189082075#5.102_0" departPos="2.10" departSpeed="0.00" departDelay="2.80" arrival="241.80" arrivalLane="151829692#1_0" arrivalPos="49.23" arrivalSpeed="18.90" duration="191.00" routeLength="1479.35" waitingTime="51.10" waitingCount="3" stopTime="0.00" timeLoss="116.31" rerouteNo="0" devices="tripinfo_sn_bike.6" vType="motorbike" speedFactor="1.03" vaporized=""/>
    <tripinfo id="sn_car.6" depart="48.30" departLane="1189082075#5.102_0" departPos="4.60" departSpeed="0.00" departDelay="5.10" arrival="243.20" arrivalLane="151829692#1_0" arrivalPos="49.23" arrivalSpeed="16.69" duration="194.90" routeLength="1476.85" waitingTime="45.80" waitingCount="2" stopTime="0.00" timeLoss="105.73" rerouteNo="0" devices="tripinfo_sn_car.6" vType="car" speedFactor="0.94" vaporized=""/>
    <tripinfo id="ns_bike.3" depart="30.70" departLane="1465267571#5_0" departPos="2.10" departSpeed="0.00" departDelay="6.70" arrival="245.20" arrivalLane="183255900#1_0" arrivalPos="24.62" arrivalSpeed="19.92" duration="214.50" routeLength="1495.30" waitingTime="75.50" waitingCount="4" stopTime="0.00" timeLoss="137.65" rerouteNo="0" devices="tripinfo_ns_bike.3" vType="motorbike" speedFactor="1.04" vaporized=""/>
    <tripinfo id="s8_in_car.2" depart="60.00" departLane="-553958820#10.154_0" departPos="4.60" departSpeed="0.00" departDelay="0.00" arrival="245.80" arrivalLane="151829692#1_1" arrivalPos="49.23" arrivalSpeed="16.64" duration="185.80" routeLength="1193.43" waitingTime="43.40" waitingCount="1" stopTime="0.00" timeLoss="112.91" rerouteNo="0" devices="tripinfo_s8_in_car.2" vType="car" speedFactor="0.91" vaporized=""/>
    <tripinfo id="hw_truck.0" depart="9.40" departLane="177566553#6_0" departPos="8.10" departSpeed="0.00" departDelay="9.40" arrival="246.60" arrivalLane="151829692#1_0" arrivalPos="49.23" arrivalSpeed="13.85" duration="237.20" routeLength="2170.05" waitingTime="9.40" waitingCount="1" stopTime="0.00" timeLoss="62.14" rerouteNo="0" devices="tripinfo_hw_truck.0" vType="truck" speedFactor="1.02" vaporized=""/>
    <tripinfo id="sn_car.8" depart="57.90" departLane="1189082075#5.102_0" departPos="4.60" departSpeed="0.00" departDelay="0.30" arrival="248.20" arrivalLane="151829692#1_0" arrivalPos="49.23" arrivalSpeed="16.65" duration="190.30" routeLength="1476.85" waitingTime="47.40" waitingCount="2" stopTime="0.00" timeLoss="100.92" rerouteNo="0" devices="tripinfo_sn_car.8" vType="car" speedFactor="0.83" vaporized=""/>
    <tripinfo id="ns_bike.5" depart="42.80" departLane="1465267571#5_0" departPos="2.10" departSpeed="0.00" departDelay="2.80" arrival="248.60" arrivalLane="183255900#1_1" arrivalPos="24.62" arrivalSpeed="19.85" duration="205.80" routeLength="1495.30" waitingTime="46.40" waitingCount="4" stopTime="0.00" timeLoss="127.54" rerouteNo="0" devices="tripinfo_ns_bike.5" vType="motorbike" speedFactor="0.88" vaporized=""/>
    <tripinfo id="ns_car.4" depart="33.70" departLane="1465267571#5_0" departPos="4.60" departSpeed="0.00" departDelay="4.90" arrival="248.90" arrivalLane="183255900#1_0" arrivalPos="24.62" arrivalSpeed="16.61" duration="215.20" routeLength="1492.80" waitingTime="66.60" waitingCount="4" stopTime="0.00" timeLoss="125.40" rerouteNo="0" devices="tripinfo_ns_car.4" vType="car" speedFactor="1.17" vaporized=""/>
    <tripinfo id="sn_car.7" depart="52.90" departLane="1189082075#5.102_0" departPos="4.60" departSpeed="0.00" departDelay="2.50" arrival="249.50" arrivalLane="151829692#1_0" arrivalPos="49.23" arrivalSpeed="16.65" duration="196.60" routeLength="1476.73" waitingTime="60.80" waitingCount="6" stopTime="0.00" timeLoss="107.57" rerouteNo="0" devices="tripinfo_sn_car.7" vType="car" speedFactor="1.02" vaporized=""/>
    <tripinfo id="ns_bike.4" depart="37.70" departLane="1465267571#5_0" departPos="2.10" departSpeed="0.00" departDelay="5.70" arrival="249.80" arrivalLane="183255900#1_1" arrivalPos="24.62" arrivalSpeed="19.78" duration="212.10" routeLength="1495.30" waitingTime="54.60" waitingCount="3" stopTime="0.00" timeLoss="135.73" rerouteNo="0" devices="tripinfo_ns_bike.4" vType="motorbike" speedFactor="1.14" vaporized=""/>
    <tripinfo id="n_hw_car.0" depart="0.00" departLane="1465267571#5_0" departPos="4.60" departSpeed="0.00" departDelay="0.00" arrival="250.70" arrivalLane="1265532934#1_0" arrivalPos="99.94" arrivalSpeed="16.59" duration="250.70" routeLength="2169.77" waitingTime="46.00" waitingCount="3" stopTime="0.00" timeLoss="65.70" rerouteNo="0" devices="tripinfo_n_hw_car.0" vType="car" speedFactor="0.83" vaporized=""/>
    <tripinfo id="sn_bike.4" depart="39.40" departLane="1189082075#5.102_0" departPos="2.10" departSpeed="0.00" departDelay="7.40" arrival="250.80" arrivalLane="151829692#1_0" arrivalPos="49.23" arrivalSpeed="18.69" duration="211.40" routeLength="1479.23" waitingTime="69.00" waitingCount="3" stopTime="0.00" timeLoss="136.69" rerouteNo="0" devices="tripinfo_sn_bike.4" vType="motorbike" speedFactor="1.02" vaporized=""/>
    <tripinfo id="ns_bike.6" depart="48.10" departLane="1465267571#5_0" departPos="2.10" departSpeed="0.00" departDelay="0.10" arrival="251.40" arrivalLane="183255900#1_1" arrivalPos="24.62" arrivalSpeed="19.97" duration="203.30" routeLength="1495.30" waitingTime="62.90" waitingCount="3" stopTime="0.00" timeLoss="126.05" rerouteNo="0" devices="tripinfo_ns_bike.6" vType="motorbike" speedFactor="0.98" vaporized=""/>