<?xml version="1.0" encoding="UTF-8"?>

<!-- generated on 2026-07-09T11:22:09.578109+05:30 by Eclipse SUMO sumo 1.26.0
<sumoConfiguration xmlns:xsi="http://www.w3.org/2001/XMLSchema-instance" xsi:noNamespaceSchemaLocation="http://sumo.dlr.de/xsd/sumoConfiguration.xsd">

    <input>
        <net-file value="C:\DEV\ATLAS\sumo_map\adaptive\../network/smart5_main.net.xml"/>
        <route-files value="C:\DEV\ATLAS\sumo_map\adaptive\../network/smart5_flows.rou.xml"/>
        <additional-files value="C:\DEV\ATLAS\sumo_map\adaptive\../network/smart5.poly.xml"/>
    </input>

    <output>
        <summary-output value="C:\DEV\ATLAS\sumo_map\adaptive\results\summary_stage1.xml"/>
        <tripinfo-output value="C:\DEV\ATLAS\sumo_map\adaptive\results\tripinfo_stage1.xml"/>
    </output>

    <time>
        <begin value="0"/>
        <end value="400"/>
        <step-length value="1"/>
    </time>

    <traci_server>
        <remote-port value="46204"/>
    </traci_server>

</sumoConfiguration>
-->

<tripinfos xmlns:xsi="http://www.w3.org/2001/XMLSchema-instance" xsi:noNamespaceSchemaLocation="http://sumo.dlr.de/xsd/tripinfo_file.xsd">
    <tripinfo id="s8_out_bike.0" depart="21.00" departLane="1189082075#5.102_0" departPos="2.10" departSpeed="0.00" departDelay="21.00" arrival="116.00" arrivalLane="553958820#10_0" arrivalPos="61.27" arrivalSpeed="14.88" duration="95.00" routeLength="1255.51" waitingTime="0.00" waitingCount="0" stopTime="0.00" timeLoss="16.33" rerouteNo="1" devices="tripinfo_s8_out_bike.0 routing_s8_out_bike.0" vType="motorbike" speedFactor="1.16" vaporized=""/>
    <tripinfo id="s10_in_rick.0" depart="4.00" departLane="-1170388412#0_0" departPos="2.90" departSpeed="0.00" departDelay="4.00" arrival="130.00" arrivalLane="151829692#1_0" arrivalPos="49.23" arrivalSpeed="10.27" duration="126.00" routeLength="1007.59" waitingTime="16.00" waitingCount="1" stopTime="0.00" timeLoss="33.83" rerouteNo="1" devices="tripinfo_s10_in_rick.0 routing_s10_in_rick.0" vType="rickshaw" speedFactor="0.97" vaporized=""/>
    <tripinfo id="s10_in_car.0" depart="0.00" departLane="-1170388412#0_0" departPos="4.60" departSpeed="0.00" departDelay="0.00" arrival="131.00" arrivalLane="183255900#1_0" arrivalPos="24.62" arrivalSpeed="13.09" duration="131.00" routeLength="1195.67" waitingTime="26.00" waitingCount="2" stopTime="0.00" timeLoss="44.26" rerouteNo="1" devices="tripinfo_s10_in_car.0 routing_s10_in_car.0" vType="car" speedFactor="1.02" vaporized=""/>
    <tripinfo id="s8_in_car.0" depart="0.00" departLane="-553958820#10.154_0" departPos="4.60" departSpeed="0.00" departDelay="0.00" arrival="132.00" arrivalLane="151829692#1_0" arrivalPos="49.23" arrivalSpeed="12.16" duration="132.00" routeLength="1189.81" waitingTime="17.00" waitingCount="1" stopTime="0.00" timeLoss="38.69" rerouteNo="1" devices="tripinfo_s8_in_car.0 routing_s8_in_car.0" vType="car" speedFactor="0.93" vaporized=""/>
    <tripinfo id="s10_in_bike.0" depart="2.00" departLane="-1170388412#0_0" departPos="2.10" departSpeed="0.00" departDelay="2.00" arrival="134.00" arrivalLane="183255900#1_0" arrivalPos="24.62" arrivalSpeed="13.21" duration="132.00" routeLength="1198.17" waitingTime="22.00" waitingCount="1" stopTime="0.00" timeLoss="44.73" rerouteNo="1" devices="tripinfo_s10_in_bike.0 routing_s10_in_bike.0" vType="motorbike" speedFactor="1.01" vaporized=""/>
    <tripinfo id="s8_in_bike.0" depart="2.00" departLane="-553958820#10.154_0" departPos="2.10" departSpeed="0.00" departDelay="2.00" arrival="135.00" arrivalLane="151829692#1_0" arrivalPos="49.23" arrivalSpeed="11.19" duration="133.00" routeLength="1192.31" waitingTime="13.00" waitingCount="1" stopTime="0.00" timeLoss="34.09" rerouteNo="1" devices="tripinfo_s8_in_bike.0 routing_s8_in_bike.0" vType="motorbike" speedFactor="0.88" vaporized=""/>
    <tripinfo id="sn_car.0" depart="0.00" departLane="1189082075#5.102_0" departPos="4.60" departSpeed="0.00" departDelay="0.00" arrival="145.00" arrivalLane="151829692#1_0" arrivalPos="49.23" arrivalSpeed="13.71" duration="145.00" routeLength="1476.73" waitingTime="28.00" waitingCount="1" stopTime="0.00" timeLoss="40.98" rerouteNo="1" devices="tripinfo_sn_car.0 routing_sn_car.0" vType="car" speedFactor="1.03" vaporized=""/>
    <tripinfo id="s8_in_rick.0" depart="4.00" departLane="-553958820#10.154_0" departPos="2.90" departSpeed="0.00" departDelay="4.00" arrival="149.00" arrivalLane="183255900#1_0" arrivalPos="24.62" arrivalSpeed="10.69" duration="145.00" routeLength="1311.55" waitingTime="10.00" waitingCount="2" stopTime="0.00" timeLoss="26.14" rerouteNo="1" devices="tripinfo_s8_in_rick.0 routing_s8_in_rick.0" vType="rickshaw" speedFactor="0.94" vaporized=""/>
    <tripinfo id="sn_bus.0" depart="9.00" departLane="1189082075#5.102_0" departPos="10.60" departSpeed="0.00" departDelay="9.00" arrival="150.00" arrivalLane="151829692#1_0" arrivalPos="49.23" arrivalSpeed="13.64" duration="141.00" routeLength="1470.85" waitingTime="14.00" waitingCount="1" stopTime="0.00" timeLoss="33.86" rerouteNo="1" devices="tripinfo_sn_bus.0 routing_sn_bus.0" vType="bus" speedFactor="1.00" vaporized=""/>
    <tripinfo id="sn_bike.1" depart="28.00" departLane="1189082075#5.102_0" departPos="2.10" departSpeed="0.00" departDelay="17.25" arrival="152.00" arrivalLane="151829692#1_0" arrivalPos="49.23" arrivalSpeed="13.27" duration="124.00" routeLength="1479.35" waitingTime="4.00" waitingCount="1" stopTime="0.00" timeLoss="29.78" rerouteNo="1" devices="tripinfo_sn_bike.1 routing_sn_bike.1" vType="motorbike" speedFactor="1.13" vaporized=""/>
    <tripinfo id="hw_s_car.0" depart="5.00" departLane="177566553#6_0" departPos="4.60" departSpeed="0.00" departDelay="5.00" arrival="157.00" arrivalLane="183255900#1_0" arrivalPos="24.62" arrivalSpeed="14.35" duration="152.00" routeLength="2243.07" waitingTime="0.00" waitingCount="0" stopTime="0.00" timeLoss="11.64" rerouteNo="1" devices="tripinfo_hw_s_car.0 routing_hw_s_car.0" vType="car" speedFactor="1.09" vaporized=""/>
    <tripinfo id="sn_car.2" depart="31.00" departLane="1189082075#5.102_0" departPos="4.60" departSpeed="0.00" departDelay="12.05" arrival="161.00" arrivalLane="151829692#1_1" arrivalPos="49.23" arrivalSpeed="13.64" duration="130.00" routeLength="1480.47" waitingTime="0.00" waitingCount="0" stopTime="0.00" timeLoss="23.26" rerouteNo="1" devices="tripinfo_sn_car.2 routing_sn_car.2" vType="car" speedFactor="1.01" vaporized=""/>
    <tripinfo id="sn_rickshaw.0" depart="4.00" departLane="1189082075#5.102_0" departPos="2.90" departSpeed="0.00" departDelay="4.00" arrival="164.00" arrivalLane="151829692#1_0" arrivalPos="49.23" arrivalSpeed="10.55" duration="160.00" routeLength="1478.55" waitingTime="6.00" waitingCount="1" stopTime="0.00" timeLoss="26.01" rerouteNo="1" devices="tripinfo_sn_rickshaw.0 routing_sn_rickshaw.0" vType="rickshaw" speedFactor="1.05" vaporized=""/>
    <tripinfo id="s10_out_car.0" depart="24.00" departLane="1189082075#5.102_0" departPos="4.60" departSpeed="0.00" departDelay="24.00" arrival="164.00" arrivalLane="1170388412#0_0" arrivalPos="277.72" arrivalSpeed="11.56" duration="140.00" routeLength="1186.21" waitingTime="12.00" waitingCount="3" stopTime="0.00" timeLoss="42.82" rerouteNo="1" devices="tripinfo_s10_out_car.0 routing_s10_out_car.0" vType="car" speedFactor="0.89" vaporized=""/>
    <tripinfo id="hw_s_bike.0" depart="7.00" departLane="177566553#6_0" departPos="2.10" departSpeed="0.00" departDelay="7.00" arrival="166.00" arrivalLane="183255900#1_0" arrivalPos="24.62" arrivalSpeed="13.87" duration="159.00" routeLength="2251.71" waitingTime="0.00" waitingCount="0" stopTime="0.00" timeLoss="26.59" rerouteNo="1" devices="tripinfo_hw_s_bike.0 routing_hw_s_bike.0" vType="motorbike" speedFactor="1.03" vaporized=""/>
    <tripinfo id="s10_out_car.1" depart="44.00" departLane="1189082075#5.102_0" departPos="4.60" departSpeed="0.00" departDelay="14.00" arrival="166.00" arrivalLane="1170388412#0_0" arrivalPos="277.72" arrivalSpeed="13.54" duration="122.00" routeLength="1186.21" waitingTime="12.00" waitingCount="2" stopTime="0.00" timeLoss="34.93" rerouteNo="1" devices="tripinfo_s10_out_car.1 routing_s10_out_car.1" vType="car" speedFactor="1.00" vaporized=""/>
    <tripinfo id="hw_s_car.1" depart="23.00" departLane="177566553#6_0" departPos="4.60" departSpeed="0.00" departDelay="5.00" arrival="172.00" arrivalLane="183255900#1_1" arrivalPos="24.62" arrivalSpeed="15.56" duration="149.00" routeLength="2243.07" waitingTime="0.00" waitingCount="0" stopTime="0.00" timeLoss="12.34" rerouteNo="1" devices="tripinfo_hw_s_car.1 routing_hw_s_car.1" vType="car" speedFactor="1.18" vaporized=""/>
    <tripinfo id="ns_car.0" depart="0.00" departLane="1465267571#5_0" departPos="4.60" departSpeed="0.00" departDelay="0.00" arrival="173.00" arrivalLane="183255900#1_0" arrivalPos="24.62" arrivalSpeed="13.62" duration="173.00" routeLength="1496.22" waitingTime="50.00" waitingCount="2" stopTime="0.00" timeLoss="70.53" rerouteNo="1" devices="tripinfo_ns_car.0 routing_ns_car.0" vType="car" speedFactor="1.06" vaporized=""/>
    <tripinfo id="hw_bus.0" depart="16.00" departLane="177566553#6_0" departPos="10.60" departSpeed="0.00" departDelay="16.00" arrival="191.00" arrivalLane="183255900#1_0" arrivalPos="24.62" arrivalSpeed="13.65" duration="175.00" routeLength="2237.07" waitingTime="0.00" waitingCount="0" stopTime="0.00" timeLoss="12.50" rerouteNo="1" devices="tripinfo_hw_bus.0 routing_hw_bus.0" vType="bus" speedFactor="1.00" vaporized=""/>
    <tripinfo id="s8_out_bike.1" depart="38.00" departLane="1189082075#5.102_0" departPos="2.10" departSpeed="0.00" departDelay="14.00" arrival="195.00" arrivalLane="553958820#10_0" arrivalPos="61.27" arrivalSpeed="13.81" duration="157.00" routeLength="1255.51" waitingTime="51.00" waitingCount="1" stopTime="0.00" timeLoss="74.34" rerouteNo="1" devices="tripinfo_s8_out_bike.1 routing_s8_out_bike.1" vType="motorbike" speedFactor="1.10" vaporized=""/>
    <tripinfo id="s8_out_bike.2" depart="60.00" departLane="1189082075#5.102_0" departPos="2.10" departSpeed="0.00" departDelay="12.00" arrival="199.00" arrivalLane="553958820#10_0" arrivalPos="61.27" arrivalSpeed="11.75" duration="139.00" routeLength="1255.51" waitingTime="15.00" waitingCount="2" stopTime="0.00" timeLoss="38.95" rerouteNo="1" devices="tripinfo_s8_out_bike.2 routing_s8_out_bike.2" vType="motorbike" speedFactor="0.91" vaporized=""/>
    <tripinfo id="sn_car.1" depart="26.00" departLane="1189082075#5.102_0" departPos="4.60" departSpeed="0.00" departDelay="16.53" arrival="214.00" arrivalLane="151829692#1_0" arrivalPos="49.23" arrivalSpeed="12.38" duration="188.00" routeLength="1476.85" waitingTime="47.00" waitingCount="1" stopTime="0.00" timeLoss="71.63" rerouteNo="1" devices="tripinfo_sn_car.1 routing_sn_car.1" vType="car" speedFactor="0.92" vaporized=""/>
    <tripinfo id="sn_car.3" depart="41.00" departLane="1189082075#5.102_0" departPos="4.60" departSpeed="0.00" departDelay="12.58" arrival="216.00" arrivalLane="151829692#1_0" arrivalPos="49.23" arrivalSpeed="15.10" duration="175.00" routeLength="1476.85" waitingTime="46.00" waitingCount="1" stopTime="0.00" timeLoss="76.49" rerouteNo="1" devices="tripinfo_sn_car.3 routing_sn_car.3" vType="car" speedFactor="1.09" vaporized=""/>
    <tripinfo id="sn_bike.2" depart="33.00" departLane="1189082075#5.102_0" departPos="2.10" departSpeed="0.00" departDelay="11.51" arrival="218.00" arrivalLane="151829692#1_0" arrivalPos="49.23" arrivalSpeed="12.54" duration="185.00" routeLength="1479.35" waitingTime="43.00" waitingCount="2" stopTime="0.00" timeLoss="77.16" rerouteNo="1" devices="tripinfo_sn_bike.2 routing_sn_bike.2" vType="motorbike" speedFactor="0.99" vaporized=""/>
    <tripinfo id="s10_in_car.1" depart="30.00" departLane="-1170388412#0_0" departPos="4.60" departSpeed="0.00" departDelay="0.00" arrival="220.00" arrivalLane="183255900#1_1" arrivalPos="24.62" arrivalSpeed="14.20" duration="190.00" routeLength="1195.67" waitingTime="78.00" waitingCount="2" stopTime="0.00" timeLoss="109.01" rerouteNo="1" devices="tripinfo_s10_in_car.1 routing_s10_in_car.1" vType="car" speedFactor="1.09" vaporized=""/>
    <tripinfo id="s10_in_rick.1" depart="45.00" departLane="-1170388412#0_0" departPos="2.90" departSpeed="0.00" departDelay="0.00" arrival="222.00" arrivalLane="151829692#1_0" arrivalPos="49.23" arrivalSpeed="10.70" duration="177.00" routeLength="1007.59" waitingTime="56.00" waitingCount="3" stopTime="0.00" timeLoss="85.20" rerouteNo="1" devices="tripinfo_s10_in_rick.1 routing_s10_in_rick.1" vType="rickshaw" speedFactor="1.08" vaporized=""/>
    <tripinfo id="hw_n_car.0" depart="0.00" departLane="177566553#6_0" departPos="4.60" departSpeed="0.00" departDelay="0.00" arrival="223.00" arrivalLane="151829692#1_0" arrivalPos="49.23" arrivalSpeed="12.00" duration="223.00" routeLength="2173.55" waitingTime="51.00" waitingCount="2" stopTime="0.00" timeLoss="78.83" rerouteNo="1" devices="tripinfo_hw_n_car.0 routing_hw_n_car.0" vType="car" speedFactor="0.94" vaporized=""/>
    <tripinfo id="sn_bike.0" depart="2.00" departLane="1189082075#5.102_0" departPos="2.10" departSpeed="0.00" departDelay="2.00" arrival="227.00" arrivalLane="151829692#1_0" arrivalPos="49.23" arrivalSpeed="11.30" duration="225.00" routeLength="1479.23" waitingTime="53.00" waitingCount="3" stopTime="0.00" timeLoss="96.66" rerouteNo="1" devices="tripinfo_sn_bike.0 routing_sn_bike.0" vType="motorbike" speedFactor="0.83" vaporized=""/>
    <tripinfo id="s10_in_bike.1" depart="24.00" departLane="-1170388412#0_0" departPos="2.10" departSpeed="0.00" departDelay="0.00" arrival="227.00" arrivalLane="183255900#1_0" arrivalPos="24.62" arrivalSpeed="11.99" duration="203.00" routeLength="1198.17" waitingTime="79.00" waitingCount="2" stopTime="0.00" timeLoss="105.25" rerouteNo="1" devices="tripinfo_s10_in_bike.1 routing_s10_in_bike.1" vType="motorbike" speedFactor="0.90" vaporized=""/>
    <tripinfo id="sn_truck.0" depart="14.00" departLane="1189082075#5.102_0" departPos="8.10" departSpeed="0.00" departDelay="14.00" arrival="229.00" arrivalLane="151829692#1_0" arrivalPos="49.23" arrivalSpeed="11.69" duration="215.00" routeLength="1473.23" waitingTime="50.00" waitingCount="3" stopTime="0.00" timeLoss="101.74" rerouteNo="1" devices="tripinfo_sn_truck.0 routing_sn_truck.0" vType="truck" speedFactor="0.94" vaporized=""/>
    <tripinfo id="s10_in_bike.2" depart="48.00" departLane="-1170388412#0_0" departPos="2.10" departSpeed="0.00" departDelay="0.00" arrival="230.00" arrivalLane="183255900#1_0" arrivalPos="24.62" arrivalSpeed="11.20" duration="182.00" routeLength="1198.17" waitingTime="58.00" waitingCount="2" stopTime="0.00" timeLoss="85.54" rerouteNo="1" devices="tripinfo_s10_in_bike.2 routing_s10_in_bike.2" vType="motorbike" speedFactor="0.91" vaporized=""/>
    <tripinfo id="hw_truck.0" depart="10.00" departLane="177566553#6_0" departPos="8.10" departSpeed="0.00" departDelay="10.00" arrival="231.00" arrivalLane="151829692#1_0" arrivalPos="49.23" arrivalSpeed="11.74" duration="221.00" routeLength="2170.05" waitingTime="28.00" waitingCount="1" stopTime="0.00" timeLoss="63.71" rerouteNo="1" devices="tripinfo_hw_truck.0 routing_hw_truck.0" vType="truck" speedFactor="1.00" vaporized=""/>
    <tripinfo id="s8_in_car.3" depart="90.00" departLane="-553958820#10.154_0" departPos="4.60" departSpeed="0.00" departDelay="0.00" arrival="233.00" arrivalLane="151829692#1_0" arrivalPos="49.23" arrivalSpeed="13.64" duration="143.00" routeLength="1189.81" waitingTime="23.00" waitingCount="1" stopTime="0.00" timeLoss="61.67" rerouteNo="1" devices="tripinfo_s8_in_car.3 routing_s8_in_car.3" vType="car" speedFactor="1.06" vaporized=""/>
    <tripinfo id="s_hw_car.0" depart="18.00" departLane="1189082075#5.102_0" departPos="4.60" departSpeed="0.00" departDelay="18.00" arrival="234.00" arrivalLane="1265532934#1_0" arrivalPos="99.94" arrivalSpeed="15.68" duration="216.00" routeLength="2297.34" waitingTime="41.00" waitingCount="4" stopTime="0.00" timeLoss="74.81" rerouteNo="1" devices="tripinfo_s_hw_car.0 routing_s_hw_car.0" vType="car" speedFactor="1.12" vaporized=""/>
    <tripinfo id="hw_n_car.1" depart="20.00" departLane="177566553#6_0" departPos="4.60" departSpeed="0.00" departDelay="2.00" arrival="235.00" arrivalLane="151829692#1_0" arrivalPos="49.23" arrivalSpeed="11.79" duration="215.00" routeLength="2177.70" waitingTime="30.00" waitingCount="2" stopTime="0.00" timeLoss="69.32" rerouteNo="1" devices="tripinfo_hw_n_car.1 routing_hw_n_car.1" vType="car" speedFactor="0.93" vaporized=""/>
    <tripinfo id="s_hw_car.1" depart="36.00" departLane="1189082075#5.102_0" departPos="4.60" departSpeed="0.00" departDelay="12.00" arrival="235.00" arrivalLane="1265532934#1_0" arrivalPos="99.94" arrivalSpeed="15.48" duration="199.00" routeLength="2291.93" waitingTime="25.00" waitingCount="1" stopTime="0.00" timeLoss="49.06" rerouteNo="1" devices="tripinfo_s_hw_car.1 routing_s_hw_car.1" vType="car" speedFactor="0.97" vaporized=""/>
    <tripinfo id="hw_s_bike.1" depart="43.00" departLane="177566553#6_0" departPos="2.10" departSpeed="0.00" departDelay="7.00" arrival="235.00" arrivalLane="183255900#1_0" arrivalPos="24.62" arrivalSpeed="13.75" duration="192.00" routeLength="2251.71" waitingTime="33.00" waitingCount="1" stopTime="0.00" timeLoss="58.38" rerouteNo="1" devices="tripinfo_hw_s_bike.1 routing_hw_s_bike.1" vType="motorbike" speedFactor="1.00" vaporized=""/>
    <tripinfo id="n_hw_car.0" depart="18.00" departLane="1465267571#5_0" departPos="4.60" departSpeed="0.00" departDelay="18.00" arrival="237.00" arrivalLane="1265532934#1_0" arrivalPos="99.94" arrivalSpeed="16.45" duration="219.00" routeLength="2166.35" waitingTime="42.00" waitingCount="3" stopTime="0.00" timeLoss="82.41" rerouteNo="1" devices="tripinfo_n_hw_car.0 routing_n_hw_car.0" vType="car" speedFactor="1.05" vaporized=""/>
    <tripinfo id="s8_in_bike.2" depart="48.00" departLane="-553958820#10.154_0" departPos="2.10" departSpeed="0.00" departDelay="0.00" arrival="237.00" arrivalLane="151829692#1_0" arrivalPos="49.23" arrivalSpeed="12.06" duration="189.00" routeLength="1192.31" waitingTime="51.00" waitingCount="2" stopTime="0.00" timeLoss="91.06" rerouteNo="1" devices="tripinfo_s8_in_bike.2 routing_s8_in_bike.2" vType="motorbike" speedFactor="0.88" vaporized=""/>
    <tripinfo id="hw_n_bike.0" depart="2.00" departLane="177566553#6_0" departPos="2.10" departSpeed="0.00" departDelay="2.00" arrival="240.00" arrivalLane="151829692#1_0" arrivalPos="49.23" arrivalSpeed="10.42" duration="238.00" routeLength="2180.20" waitingTime="52.00" waitingCount="2" stopTime="0.00" timeLoss="93.31" rerouteNo="1" devices="tripinfo_hw_n_bike.0 routing_hw_n_bike.0" vType="motorbike" speedFactor="0.86" vaporized=""/>
    <tripinfo id="s8_in_rick.1" depart="45.00" departLane="-553958820#10.154_0" departPos="2.90" departSpeed="0.00" departDelay="0.00" arrival="242.00" arrivalLane="183255900#1_0" arrivalPos="24.62" arrivalSpeed="10.18" duration="197.00" routeLength="1311.55" waitingTime="55.00" waitingCount="2" stopTime="0.00" timeLoss="77.22" rerouteNo="1" devices="tripinfo_s8_in_rick.1 routing_s8_in_rick.1" vType="rickshaw" speedFactor="0.97" vaporized=""/>
    <tripinfo id="s8_in_car.2" depart="60.00" departLane="-553958820#10.154_0" departPos="4.60" departSpeed="0.00" departDelay="0.00" arrival="242.00" arrivalLane="151829692#1_0" arrivalPos="49.23" arrivalSpeed="13.32" duration="182.00" routeLength="1189.81" waitingTime="46.00" waitingCount="2" stopTime="0.00" timeLoss="97.89" rerouteNo="1" devices="tripinfo_s8_in_car.2 routing_s8_in_car.2" vType="car" speedFactor="1.03" vaporized=""/>
    <tripinfo id="s8_in_bike.3" depart="72.00" departLane="-553958820#10.154_0" departPos="2.10" departSpeed="0.00" departDelay="0.00" arrival="243.00" arrivalLane="151829692#1_0" arrivalPos="49.23" arrivalSpeed="13.51" duration="171.00" routeLength="1192.31" waitingTime="30.00" waitingCount="2" stopTime="0.00" timeLoss="92.20" rerouteNo="1" devices="tripinfo_s8_in_bike.3 routing_s8_in_bike.3" vType="motorbike" speedFactor="1.09" vaporized=""/>
    <tripinfo id="s10_in_rick.2" depart="92.00" departLane="-1170388412#0_0" departPos="2.90" departSpeed="0.00" departDelay="2.00" arrival="244.00" arrivalLane="151829692#1_1" arrivalPos="49.23" arrivalSpeed="10.30" duration="152.00" routeLength="1011.21" waitingTime="25.00" waitingCount="1" stopTime="0.00" timeLoss="60.25" rerouteNo="1" devices="tripinfo_s10_in_rick.2 routing_s10_in_rick.2" vType="rickshaw" speedFactor="1.10" vaporized=""/>
    <tripinfo id="s8_in_bike.1" depart="24.00" departLane="-553958820#10.154_0" departPos="2.10" departSpeed="0.00" departDelay="0.00" arrival="245.00" arrivalLane="151829692#1_0" arrivalPos="49.23" arrivalSpeed="14.80" duration="221.00" routeLength="1192.31" waitingTime="91.00" waitingCount="3" stopTime="0.00" timeLoss="147.44" rerouteNo="1" devices="tripinfo_s8_in_bike.1 routing_s8_in_bike.1" vType="motorbike" speedFactor="1.18" vaporized=""/>
    <tripinfo id="s8_in_car.1" depart="30.00" departLane="-553958820#10.154_0" departPos="4.60" departSpeed="0.00" departDelay="0.00" arrival="246.00" arrivalLane="151829692#1_0" arrivalPos="49.23" arrivalSpeed="13.12" duration="216.00" routeLength="1189.81" waitingTime="80.00" waitingCount="3" stopTime="0.00" timeLoss="133.09" rerouteNo="1" devices="tripinfo_s8_in_car.1 routing_s8_in_car.1" vType="car" speedFactor="1.04" vaporized=""/>
    <tripinfo id="sn_bike.4" depart="53.00" departLane="1189082075#5.102_0" departPos="2.10" departSpeed="0.00" departDelay="10.02" arrival="246.00" arrivalLane="151829692#1_1" arrivalPos="49.23" arrivalSpeed="14.15" duration="193.00" routeLength="1482.97" waitingTime="53.00" waitingCount="1" stopTime="0.00" timeLoss="88.14" rerouteNo="1" devices="tripinfo_sn_bike.4 routing_sn_bike.4" vType="motorbike" speedFactor="1.02" vaporized=""/>
    <tripinfo id="sn_car.7" depart="77.00" departLane="1189082075#5.102_0" departPos="4.60" departSpeed="0.00" departDelay="10.68" arrival="249.00" arrivalLane="151829692#1_1" arrivalPos="49.23" arrivalSpeed="12.60" duration="172.00" routeLength="1480.47" waitingTime="43.00" waitingCount="1" stopTime="0.00" timeLoss="62.05" rerouteNo="1" devices="tripinfo_sn_car.7 routing_sn_car.7" vType="car" speedFactor="0.98" vaporized=""/>
    <tripinfo id="ns_bus.0" depart="8.00" departLane="1465267571#5_0" departPos="10.60" departSpeed="0.00" departDelay="8.00" arrival="250.00" arrivalLane="183255900#1_1" arrivalPos="24.62" arrivalSpeed="13.43" duration="242.00" routeLength="1490.22" waitingTime="90.00" waitingCount="3" stopTime="0.00" timeLoss="134.63" rerouteNo="1" devices="tripinfo_ns_bus.0 routing_ns_bus.0" vType="bus" speedFactor="1.00" vaporized=""/>
    <tripinfo id="s10_out_bike.0" depart="23.00" departLane="1465267571#5_0" departPos="2.10" departSpeed="0.00" departDelay="23.00" arrival="250.00" arrivalLane="1170388412#0_0" arrivalPos="277.72" arrivalSpeed="10.89" duration="227.00" routeLength="1095.73" waitingTime="89.00" waitingCount="4" stopTime="0.00" timeLoss="129.87" rerouteNo="1" devices="tripinfo_s10_out_bike.0 routing_s10_out_bike.0" vType="motorbike" speedFactor="0.83" vaporized=""/>
    <tripinfo id="sn_bike.3" depart="49.00" departLane="1189082075#5.102_0" departPos="2.10" departSpeed="0.00" departDelay="16.76" arrival="251.00" arrivalLane="151829692#1_0" arrivalPos="49.23" arrivalSpeed="11.51" duration="202.00" routeLength="1479.35" waitingTime="53.00" waitingCount="1" stopTime="0.00" timeLoss="76.70" rerouteNo="1" devices="tripinfo_sn_bike.3 routing_sn_bike.3" vType="motorbike" speedFactor="0.85" vaporized=""/>
    <tripinfo id="s8_in_rick.2" depart="92.00" departLane="-553958820#10.154_0" departPos="2.90" departSpeed="0.00" departDelay="2.00" arrival="251.00" arrivalLane="183255900#1_0" arrivalPos="24.62" arrivalSpeed="10.24" duration="159.00" routeLength="1311.55" waitingTime="20.00" waitingCount="1" stopTime="0.00" timeLoss="39.95" rerouteNo="1" devices="tripinfo_s8_in_rick.2 routing_s8_in_rick.2" vType="rickshaw" speedFactor="0.96" vaporized=""/>
    <tripinfo id="s10_out_bike.1" depart="38.00" departLane="1465267571#5_0" departPos="2.10" departSpeed="0.00" departDelay="14.00" arrival="252.00" arrivalLane="1170388412#0_0" arrivalPos="277.72" arrivalSpeed="14.02" duration="214.00" routeLength="1095.73" waitingTime="65.00" waitingCount="4" stopTime="0.00" timeLoss="135.79" rerouteNo="1" devices="tripinfo_s10_out_bike.1 routing_s10_out_bike.1" vType="motorbike" speedFactor="1.03" vaporized=""/>
    <tripinfo id="sn_car.5" depart="56.00" departLane="1189082075#5.102_0" departPos="4.60" departSpeed="0.00" departDelay="8.63" arrival="252.00" arrivalLane="151829692#1_0" arrivalPos="49.23" arrivalSpeed="10.73" duration="196.00" routeLength="1476.85" waitingTime="52.00" waitingCount="1" stopTime="0.00" timeLoss="91.11" rerouteNo="1" devices="tripinfo_sn_car.5 routing_sn_car.5" vType="car" speedFactor="1.02" vaporized=""/>
    <tripinfo id="sn_bike.5" depart="63.00" departLane="1189082075#5.102_0" departPos="2.10" departSpeed="0.00" departDelay="9.27" arrival="252.00" arrivalLane="151829692#1_1" arrivalPos="49.23" arrivalSpeed="12.07" duration="189.00" routeLength="1482.97" waitingTime="49.00" waitingCount="1" stopTime="0.00" timeLoss="84.03" rerouteNo="1" devices="tripinfo_sn_bike.5 routing_sn_bike.5" vType="motorbike" speedFactor="1.02" vaporized=""/>
    <tripinfo id="ns_bike.0" depart="2.00" departLane="1465267571#5_0" departPos="2.10" departSpeed="0.00" departDelay="2.00" arrival="253.00" arrivalLane="183255900#1_0" arrivalPos="24.62" arrivalSpeed="11.83" duration="251.00" routeLength="1495.30" waitingTime="105.00" waitingCount="3" stopTime="0.00" timeLoss="135.24" rerouteNo="1" devices="tripinfo_ns_bike.0 routing_ns_bike.0" vType="motorbike" speedFactor="0.94" vaporized=""/>
    <tripinfo id="s10_out_car.2" depart="69.00" departLane="1189082075#5.102_0" departPos="4.60" departSpeed="0.00" departDelay="9.00" arrival="253.00" arrivalLane="1170388412#0_0" arrivalPos="277.72" arrivalSpeed="14.30" duration="184.00" routeLength="1186.21" waitingTime="69.00" waitingCount="3" stopTime="0.00" timeLoss="104.40" rerouteNo="1" devices="tripinfo_s10_out_car.2 routing_s10_out_car.2" vType="car" speedFactor="1.09" vaporized=""/>
    <tripinfo id="sn_car.6" depart="66.00" departLane="1189082075#5.102_0" departPos="4.60" departSpeed="0.00" departDelay="9.16" arrival="254.00" arrivalLane="151829692#1_0" arrivalPos="49.23" arrivalSpeed="12.47" duration="188.00" routeLength="1476.85" waitingTime="49.00" waitingCount="1" stopTime="0.00" timeLoss="76.24" rerouteNo="1" devices="tripinfo_sn_car.6 routing_sn_car.6" vType="car" speedFactor="0.96" vaporized=""/>
    <tripinfo id="sn_car.4" depart="51.00" departLane="1189082075#5.102_0" departPos="4.60" departSpeed="0.00" departDelay="13.10" arrival="256.00" arrivalLane="151829692#1_1" arrivalPos="49.23" arrivalSpeed="12.16" duration="205.00" routeLength="1480.35" waitingTime="53.00" waitingCount="1" stopTime="0.00" timeLoss="86.38" rerouteNo="1" devices="tripinfo_sn_car.4 routing_sn_car.4" vType="car" speedFactor="0.90" vaporized=""/>
    <tripinfo id="sn_rickshaw.1" depart="46.00" departLane="1189082075#5.102_0" departPos="2.90" departSpeed="0.00" departDelay="14.70" arrival="257.00" arrivalLane="151829692#1_0" arrivalPos="49.23" arrivalSpeed="10.06" duration="211.00" routeLength="1478.43" waitingTime="53.00" waitingCount="1" stopTime="0.00" timeLoss="77.50" rerouteNo="1" devices="tripinfo_sn_rickshaw.1 routing_sn_rickshaw.1" vType="rickshaw" speedFactor="0.88" vaporized=""/>
    <tripinfo id="ns_bike.1" depart="27.00" departLane="1465267571#5_0" departPos="2.10" departSpeed="0.00" departDelay="16.25" arrival="259.00" arrivalLane="183255900#1_1" arrivalPos="24.62" arrivalSpeed="11.35" duration="232.00" routeLength="1495.30" waitingTime="71.00" waitingCount="3" stopTime="0.00" timeLoss="117.83" rerouteNo="1" devices="tripinfo_ns_bike.1 routing_ns_bike.1" vType="motorbike" speedFactor="0.95" vaporized=""/>
    <tripinfo id="ns_car.2" depart="30.00" departLane="1465267571#5_0" departPos="4.60" departSpeed="0.00" departDelay="11.05" arrival="260.00" arrivalLane="183255900#1_1" arrivalPos="24.62" arrivalSpeed="13.91" duration="230.00" routeLength="1496.22" waitingTime="69.00" waitingCount="3" stopTime="0.00" timeLoss="136.50" rerouteNo="1" devices="tripinfo_ns_car.2 routing_ns_car.2" vType="car" speedFactor="1.15" vaporized=""/>
    <tripinfo id="ns_rickshaw.0" depart="4.00" departLane="1465267571#5_0" departPos="2.90" departSpeed="0.00" departDelay="4.00" arrival="261.00" arrivalLane="183255900#1_0" arrivalPos="24.62" arrivalSpeed="10.89" duration="257.00" routeLength="1494.50" waitingTime="95.00" waitingCount="3" stopTime="0.00" timeLoss="122.25" rerouteNo="1" devices="tripinfo_ns_rickshaw.0 routing_ns_rickshaw.0" vType="rickshaw" speedFactor="1.01" vaporized=""/>
    <tripinfo id="ns_truck.0" depart="13.00" departLane="1465267571#5_0" departPos="8.10" departSpeed="0.00" departDelay="13.00" arrival="263.00" arrivalLane="183255900#1_0" arrivalPos="24.62" arrivalSpeed="12.15" duration="250.00" routeLength="1492.72" waitingTime="79.00" waitingCount="3" stopTime="0.00" timeLoss="142.30" rerouteNo="1" devices="tripinfo_ns_truck.0 routing_ns_truck.0" vType="truck" speedFactor="1.04" vaporized=""/>
    <tripinfo id="ns_car.1" depart="25.00" departLane="1465267571#5_0" departPos="4.60" departSpeed="0.00" departDelay="15.53" arrival="264.00" arrivalLane="183255900#1_1" arrivalPos="24.62" arrivalSpeed="11.37" duration="239.00" routeLength="1492.80" waitingTime="69.00" waitingCount="4" stopTime="0.00" timeLoss="115.13" rerouteNo="1" devices="tripinfo_ns_car.1 routing_ns_car.1" vType="car" speedFactor="0.87" vaporized=""/>