<?xml version="1.0" encoding="UTF-8"?>

<!-- generated on 2026-07-09T11:23:42.793633+05:30 by Eclipse SUMO sumo 1.26.0
<sumoConfiguration xmlns:xsi="http://www.w3.org/2001/XMLSchema-instance" xsi:noNamespaceSchemaLocation="http://sumo.dlr.de/xsd/sumoConfiguration.xsd">

    <input>
        <net-file value="C:\DEV\ATLAS\sumo_map\adaptive\../network/smart5_main.net.xml"/>
        <route-files value="C:\DEV\ATLAS\sumo_map\adaptive\../network/smart5_flows.rou.xml"/>
        <additional-files value="C:\DEV\ATLAS\sumo_map\adaptive\../network/smart5.poly.xml"/>
    </input>

    <output>
        <summary-output value="C:\DEV\ATLAS\sumo_map\adaptive\results\summary_stage2.xml"/>
        <tripinfo-output value="C:\DEV\ATLAS\sumo_map\adaptive\results\tripinfo_stage2.xml"/>
    </output>

    <time>
        <begin value="0"/>
        <end value="400"/>
        <step-length value="1"/>
    </time>

    <traci_server>
        <remote-port value="61618"/>
    </traci_server>

</sumoConfiguration>
-->

<tripinfos xmlns:xsi="http://www.w3.org/2001/XMLSchema-instance" xsi:noNamespaceSchemaLocation="http://sumo.dlr.de/xsd/tripinfo_file.xsd">
    <tripinfo id="s10_in_car.0" depart="0.00" departLane="-1170388412#0_0" departPos="4.60" departSpeed="0.00" departDelay="0.00" arrival="124.00" arrivalLane="183255900#1_0" arrivalPos="24.62" arrivalSpeed="14.07" duration="124.00" routeLength="1195.67" waitingTime="24.00" waitingCount="1" stopTime="0.00" timeLoss="36.45" rerouteNo="1" devices="tripinfo_s10_in_car.0 routing_s10_in_car.0" vType="car" speedFactor="1.02" vaporized=""/>
    <tripinfo id="s8_in_car.0" depart="0.00" departLane="-553958820#10.154_0" departPos="4.60" departSpeed="0.00" departDelay="0.00" arrival="129.00" arrivalLane="151829692#1_1" arrivalPos="49.23" arrivalSpeed="12.83" duration="129.00" routeLength="1193.43" waitingTime="17.00" waitingCount="1" stopTime="0.00" timeLoss="35.31" rerouteNo="1" devices="tripinfo_s8_in_car.0 routing_s8_in_car.0" vType="car" speedFactor="0.93" vaporized=""/>
    <tripinfo id="s10_in_bike.0" depart="2.00" departLane="-1170388412#0_0" departPos="2.10" departSpeed="0.00" departDelay="2.00" arrival="129.00" arrivalLane="183255900#1_0" arrivalPos="24.62" arrivalSpeed="12.99" duration="127.00" routeLength="1198.17" waitingTime="22.00" waitingCount="1" stopTime="0.00" timeLoss="39.81" rerouteNo="1" devices="tripinfo_s10_in_bike.0 routing_s10_in_bike.0" vType="motorbike" speedFactor="1.01" vaporized=""/>
    <tripinfo id="s10_in_rick.0" depart="4.00" departLane="-1170388412#0_0" departPos="2.90" departSpeed="0.00" departDelay="4.00" arrival="130.00" arrivalLane="151829692#1_0" arrivalPos="49.23" arrivalSpeed="10.81" duration="126.00" routeLength="1007.59" waitingTime="16.00" waitingCount="1" stopTime="0.00" timeLoss="33.50" rerouteNo="1" devices="tripinfo_s10_in_rick.0 routing_s10_in_rick.0" vType="rickshaw" speedFactor="0.97" vaporized=""/>
    <tripinfo id="s8_in_bike.0" depart="2.00" departLane="-553958820#10.154_0" departPos="2.10" departSpeed="0.00" departDelay="2.00" arrival="133.00" arrivalLane="151829692#1_0" arrivalPos="49.23" arrivalSpeed="10.93" duration="131.00" routeLength="1192.31" waitingTime="13.00" waitingCount="1" stopTime="0.00" timeLoss="32.72" rerouteNo="1" devices="tripinfo_s8_in_bike.0 routing_s8_in_bike.0" vType="motorbike" speedFactor="0.88" vaporized=""/>
    <tripinfo id="sn_car.0" depart="0.00" departLane="1189082075#5.102_0" departPos="4.60" departSpeed="0.00" departDelay="0.00" arrival="140.00" arrivalLane="151829692#1_0" arrivalPos="49.23" arrivalSpeed="13.78" duration="140.00" routeLength="1476.73" waitingTime="22.00" waitingCount="1" stopTime="0.00" timeLoss="36.66" rerouteNo="1" devices="tripinfo_sn_car.0 routing_sn_car.0" vType="car" speedFactor="1.03" vaporized=""/>
    <tripinfo id="sn_bus.0" depart="9.00" departLane="1189082075#5.102_0" departPos="10.60" departSpeed="0.00" departDelay="9.00" arrival="145.00" arrivalLane="151829692#1_0" arrivalPos="49.23" arrivalSpeed="13.71" duration="136.00" routeLength="1470.85" waitingTime="8.00" waitingCount="1" stopTime="0.00" timeLoss="28.85" rerouteNo="1" devices="tripinfo_sn_bus.0 routing_sn_bus.0" vType="bus" speedFactor="1.00" vaporized=""/>
    <tripinfo id="s8_out_bike.0" depart="21.00" departLane="1189082075#5.102_0" departPos="2.10" departSpeed="0.00" departDelay="21.00" arrival="146.00" arrivalLane="553958820#10_0" arrivalPos="61.27" arrivalSpeed="15.77" duration="125.00" routeLength="1255.51" waitingTime="22.00" waitingCount="1" stopTime="0.00" timeLoss="46.03" rerouteNo="1" devices="tripinfo_s8_out_bike.0 routing_s8_out_bike.0" vType="motorbike" speedFactor="1.16" vaporized=""/>
    <tripinfo id="s8_out_bike.1" depart="38.00" departLane="1189082075#5.102_0" departPos="2.10" departSpeed="0.00" departDelay="14.00" arrival="148.00" arrivalLane="553958820#10_0" arrivalPos="61.27" arrivalSpeed="13.17" duration="110.00" routeLength="1255.51" waitingTime="5.00" waitingCount="1" stopTime="0.00" timeLoss="27.23" rerouteNo="1" devices="tripinfo_s8_out_bike.1 routing_s8_out_bike.1" vType="motorbike" speedFactor="1.10" vaporized=""/>
    <tripinfo id="s8_in_rick.0" depart="4.00" departLane="-553958820#10.154_0" departPos="2.90" departSpeed="0.00" departDelay="4.00" arrival="149.00" arrivalLane="183255900#1_0" arrivalPos="24.62" arrivalSpeed="10.50" duration="145.00" routeLength="1311.55" waitingTime="10.00" waitingCount="2" stopTime="0.00" timeLoss="26.16" rerouteNo="1" devices="tripinfo_s8_in_rick.0 routing_s8_in_rick.0" vType="rickshaw" speedFactor="0.94" vaporized=""/>
    <tripinfo id="sn_bike.1" depart="28.00" departLane="1189082075#5.102_0" departPos="2.10" departSpeed="0.00" departDelay="17.25" arrival="152.00" arrivalLane="151829692#1_1" arrivalPos="49.23" arrivalSpeed="13.62" duration="124.00" routeLength="1482.97" waitingTime="0.00" waitingCount="0" stopTime="0.00" timeLoss="29.14" rerouteNo="1" devices="tripinfo_sn_bike.1 routing_sn_bike.1" vType="motorbike" speedFactor="1.13" vaporized=""/>
    <tripinfo id="sn_truck.0" depart="14.00" departLane="1189082075#5.102_0" departPos="8.10" departSpeed="0.00" departDelay="14.00" arrival="153.00" arrivalLane="151829692#1_0" arrivalPos="49.23" arrivalSpeed="12.71" duration="139.00" routeLength="1473.35" waitingTime="3.00" waitingCount="1" stopTime="0.00" timeLoss="25.83" rerouteNo="1" devices="tripinfo_sn_truck.0 routing_sn_truck.0" vType="truck" speedFactor="0.94" vaporized=""/>
    <tripinfo id="sn_car.2" depart="31.00" departLane="1189082075#5.102_0" departPos="4.60" departSpeed="0.00" departDelay="12.05" arrival="156.00" arrivalLane="151829692#1_0" arrivalPos="49.23" arrivalSpeed="13.32" duration="125.00" routeLength="1476.85" waitingTime="0.00" waitingCount="0" stopTime="0.00" timeLoss="18.47" rerouteNo="1" devices="tripinfo_sn_car.2 routing_sn_car.2" vType="car" speedFactor="1.01" vaporized=""/>
    <tripinfo id="hw_s_car.0" depart="5.00" departLane="177566553#6_0" departPos="4.60" departSpeed="0.00" departDelay="5.00" arrival="157.00" arrivalLane="183255900#1_0" arrivalPos="24.62" arrivalSpeed="14.34" duration="152.00" routeLength="2243.07" waitingTime="0.00" waitingCount="0" stopTime="0.00" timeLoss="11.30" rerouteNo="1" devices="tripinfo_hw_s_car.0 routing_hw_s_car.0" vType="car" speedFactor="1.09" vaporized=""/>
    <tripinfo id="sn_rickshaw.0" depart="4.00" departLane="1189082075#5.102_0" departPos="2.90" departSpeed="0.00" departDelay="4.00" arrival="160.00" arrivalLane="151829692#1_0" arrivalPos="49.23" arrivalSpeed="10.50" duration="156.00" routeLength="1478.55" waitingTime="2.00" waitingCount="1" stopTime="0.00" timeLoss="22.07" rerouteNo="1" devices="tripinfo_sn_rickshaw.0 routing_sn_rickshaw.0" vType="rickshaw" speedFactor="1.05" vaporized=""/>
    <tripinfo id="sn_car.3" depart="41.00" departLane="1189082075#5.102_0" departPos="4.60" departSpeed="0.00" departDelay="12.58" arrival="161.00" arrivalLane="151829692#1_0" arrivalPos="49.23" arrivalSpeed="12.22" duration="120.00" routeLength="1476.85" waitingTime="0.00" waitingCount="0" stopTime="0.00" timeLoss="22.04" rerouteNo="1" devices="tripinfo_sn_car.3 routing_sn_car.3" vType="car" speedFactor="1.09" vaporized=""/>
    <tripinfo id="s10_out_car.0" depart="24.00" departLane="1189082075#5.102_0" departPos="4.60" departSpeed="0.00" departDelay="24.00" arrival="165.00" arrivalLane="1170388412#0_0" arrivalPos="277.72" arrivalSpeed="11.64" duration="141.00" routeLength="1186.21" waitingTime="22.00" waitingCount="1" stopTime="0.00" timeLoss="42.81" rerouteNo="1" devices="tripinfo_s10_out_car.0 routing_s10_out_car.0" vType="car" speedFactor="0.89" vaporized=""/>
    <tripinfo id="s10_out_car.1" depart="44.00" departLane="1189082075#5.102_0" departPos="4.60" departSpeed="0.00" departDelay="14.00" arrival="166.00" arrivalLane="1170388412#0_0" arrivalPos="277.72" arrivalSpeed="13.10" duration="122.00" routeLength="1186.21" waitingTime="20.00" waitingCount="1" stopTime="0.00" timeLoss="35.19" rerouteNo="1" devices="tripinfo_s10_out_car.1 routing_s10_out_car.1" vType="car" speedFactor="1.00" vaporized=""/>
    <tripinfo id="sn_bike.0" depart="2.00" departLane="1189082075#5.102_0" departPos="2.10" departSpeed="0.00" departDelay="2.00" arrival="167.00" arrivalLane="151829692#1_0" arrivalPos="49.23" arrivalSpeed="11.01" duration="165.00" routeLength="1479.23" waitingTime="9.00" waitingCount="2" stopTime="0.00" timeLoss="36.83" rerouteNo="1" devices="tripinfo_sn_bike.0 routing_sn_bike.0" vType="motorbike" speedFactor="0.83" vaporized=""/>
    <tripinfo id="hw_s_car.1" depart="23.00" departLane="177566553#6_0" departPos="4.60" departSpeed="0.00" departDelay="5.00" arrival="172.00" arrivalLane="183255900#1_1" arrivalPos="24.62" arrivalSpeed="16.11" duration="149.00" routeLength="2243.07" waitingTime="0.00" waitingCount="0" stopTime="0.00" timeLoss="12.57" rerouteNo="1" devices="tripinfo_hw_s_car.1 routing_hw_s_car.1" vType="car" speedFactor="1.18" vaporized=""/>
    <tripinfo id="hw_s_bike.0" depart="7.00" departLane="177566553#6_0" departPos="2.10" departSpeed="0.00" departDelay="7.00" arrival="173.00" arrivalLane="183255900#1_0" arrivalPos="24.62" arrivalSpeed="11.86" duration="166.00" routeLength="2251.71" waitingTime="2.00" waitingCount="1" stopTime="0.00" timeLoss="33.38" rerouteNo="1" devices="tripinfo_hw_s_bike.0 routing_hw_s_bike.0" vType="motorbike" speedFactor="1.03" vaporized=""/>
    <tripinfo id="hw_bus.0" depart="16.00" departLane="177566553#6_0" departPos="10.60" departSpeed="0.00" departDelay="16.00" arrival="191.00" arrivalLane="183255900#1_0" arrivalPos="24.62" arrivalSpeed="13.56" duration="175.00" routeLength="2237.07" waitingTime="0.00" waitingCount="0" stopTime="0.00" timeLoss="13.02" rerouteNo="1" devices="tripinfo_hw_bus.0 routing_hw_bus.0" vType="bus" speedFactor="1.00" vaporized=""/>
    <tripinfo id="s10_out_car.2" depart="69.00" departLane="1189082075#5.102_0" departPos="4.60" departSpeed="0.00" departDelay="9.00" arrival="191.00" arrivalLane="1170388412#0_0" arrivalPos="277.72" arrivalSpeed="14.05" duration="122.00" routeLength="1186.21" waitingTime="18.00" waitingCount="1" stopTime="0.00" timeLoss="42.34" rerouteNo="1" devices="tripinfo_s10_out_car.2 routing_s10_out_car.2" vType="car" speedFactor="1.09" vaporized=""/>
    <tripinfo id="ns_car.0" depart="0.00" departLane="1465267571#5_0" departPos="4.60" departSpeed="0.00" departDelay="0.00" arrival="208.00" arrivalLane="183255900#1_1" arrivalPos="24.62" arrivalSpeed="14.66" duration="208.00" routeLength="1496.22" waitingTime="78.00" waitingCount="3" stopTime="0.00" timeLoss="105.81" rerouteNo="1" devices="tripinfo_ns_car.0 routing_ns_car.0" vType="car" speedFactor="1.06" vaporized=""/>
    <tripinfo id="s10_in_bike.1" depart="24.00" departLane="-1170388412#0_0" departPos="2.10" departSpeed="0.00" departDelay="0.00" arrival="213.00" arrivalLane="183255900#1_0" arrivalPos="24.62" arrivalSpeed="11.67" duration="189.00" routeLength="1198.17" waitingTime="65.00" waitingCount="3" stopTime="0.00" timeLoss="90.73" rerouteNo="1" devices="tripinfo_s10_in_bike.1 routing_s10_in_bike.1" vType="motorbike" speedFactor="0.90" vaporized=""/>
    <tripinfo id="sn_car.1" depart="26.00" departLane="1189082075#5.102_0" departPos="4.60" departSpeed="0.00" departDelay="16.53" arrival="214.00" arrivalLane="151829692#1_1" arrivalPos="49.23" arrivalSpeed="12.09" duration="188.00" routeLength="1480.35" waitingTime="46.00" waitingCount="1" stopTime="0.00" timeLoss="71.91" rerouteNo="1" devices="tripinfo_sn_car.1 routing_sn_car.1" vType="car" speedFactor="0.92" vaporized=""/>
    <tripinfo id="sn_bike.2" depart="33.00" departLane="1189082075#5.102_0" departPos="2.10" departSpeed="0.00" departDelay="11.51" arrival="214.00" arrivalLane="151829692#1_0" arrivalPos="49.23" arrivalSpeed="13.09" duration="181.00" routeLength="1479.23" waitingTime="46.00" waitingCount="1" stopTime="0.00" timeLoss="73.22" rerouteNo="1" devices="tripinfo_sn_bike.2 routing_sn_bike.2" vType="motorbike" speedFactor="0.99" vaporized=""/>
    <tripinfo id="s10_out_bike.0" depart="23.00" departLane="1465267571#5_0" departPos="2.10" departSpeed="0.00" departDelay="23.00" arrival="217.00" arrivalLane="1170388412#0_0" arrivalPos="277.72" arrivalSpeed="10.30" duration="194.00" routeLength="1095.73" waitingTime="53.00" waitingCount="4" stopTime="0.00" timeLoss="97.21" rerouteNo="1" devices="tripinfo_s10_out_bike.0 routing_s10_out_bike.0" vType="motorbike" speedFactor="0.83" vaporized=""/>
    <tripinfo id="s8_out_bike.2" depart="60.00" departLane="1189082075#5.102_0" departPos="2.10" departSpeed="0.00" departDelay="12.00" arrival="217.00" arrivalLane="553958820#10_0" arrivalPos="61.27" arrivalSpeed="12.20" duration="157.00" routeLength="1255.51" waitingTime="35.00" waitingCount="2" stopTime="0.00" timeLoss="56.73" rerouteNo="1" devices="tripinfo_s8_out_bike.2 routing_s8_out_bike.2" vType="motorbike" speedFactor="0.91" vaporized=""/>
    <tripinfo id="ns_bike.0" depart="2.00" departLane="1465267571#5_0" departPos="2.10" departSpeed="0.00" departDelay="2.00" arrival="218.00" arrivalLane="183255900#1_0" arrivalPos="24.62" arrivalSpeed="12.92" duration="216.00" routeLength="1495.30" waitingTime="72.00" waitingCount="3" stopTime="0.00" timeLoss="100.15" rerouteNo="1" devices="tripinfo_ns_bike.0 routing_ns_bike.0" vType="motorbike" speedFactor="0.94" vaporized=""/>
    <tripinfo id="s8_out_bike.3" depart="88.00" departLane="1189082075#5.102_0" departPos="2.10" departSpeed="0.00" departDelay="16.00" arrival="218.00" arrivalLane="553958820#10_0" arrivalPos="61.27" arrivalSpeed="12.94" duration="130.00" routeLength="1255.51" waitingTime="17.00" waitingCount="1" stopTime="0.00" timeLoss="44.15" rerouteNo="1" devices="tripinfo_s8_out_bike.3 routing_s8_out_bike.3" vType="motorbike" speedFactor="1.06" vaporized=""/>
    <tripinfo id="ns_bus.0" depart="8.00" departLane="1465267571#5_0" departPos="10.60" departSpeed="0.00" departDelay="8.00" arrival="219.00" arrivalLane="183255900#1_0" arrivalPos="24.62" arrivalSpeed="12.84" duration="211.00" routeLength="1490.22" waitingTime="58.00" waitingCount="3" stopTime="0.00" timeLoss="103.66" rerouteNo="1" devices="tripinfo_ns_bus.0 routing_ns_bus.0" vType="bus" speedFactor="1.00" vaporized=""/>
    <tripinfo id="s10_out_bike.1" depart="38.00" departLane="1465267571#5_0" departPos="2.10" departSpeed="0.00" departDelay="14.00" arrival="219.00" arrivalLane="1170388412#0_0" arrivalPos="277.72" arrivalSpeed="13.10" duration="181.00" routeLength="1099.15" waitingTime="44.00" waitingCount="3" stopTime="0.00" timeLoss="102.95" rerouteNo="1" devices="tripinfo_s10_out_bike.1 routing_s10_out_bike.1" vType="motorbike" speedFactor="1.03" vaporized=""/>
    <tripinfo id="hw_n_car.1" depart="20.00" departLane="177566553#6_0" departPos="4.60" departSpeed="0.00" departDelay="2.00" arrival="221.00" arrivalLane="151829692#1_1" arrivalPos="49.23" arrivalSpeed="12.19" duration="201.00" routeLength="2177.17" waitingTime="31.00" waitingCount="3" stopTime="0.00" timeLoss="55.30" rerouteNo="1" devices="tripinfo_hw_n_car.1 routing_hw_n_car.1" vType="car" speedFactor="0.93" vaporized=""/>
    <tripinfo id="s10_in_rick.1" depart="45.00" departLane="-1170388412#0_0" departPos="2.90" departSpeed="0.00" departDelay="0.00" arrival="221.00" arrivalLane="151829692#1_0" arrivalPos="49.23" arrivalSpeed="11.00" duration="176.00" routeLength="1007.59" waitingTime="57.00" waitingCount="3" stopTime="0.00" timeLoss="84.00" rerouteNo="1" devices="tripinfo_s10_in_rick.1 routing_s10_in_rick.1" vType="rickshaw" speedFactor="1.08" vaporized=""/>
    <tripinfo id="ns_truck.0" depart="13.00" departLane="1465267571#5_0" departPos="8.10" departSpeed="0.00" departDelay="13.00" arrival="222.00" arrivalLane="183255900#1_1" arrivalPos="24.62" arrivalSpeed="13.80" duration="209.00" routeLength="1492.72" waitingTime="47.00" waitingCount="3" stopTime="0.00" timeLoss="100.78" rerouteNo="1" devices="tripinfo_ns_truck.0 routing_ns_truck.0" vType="truck" speedFactor="1.04" vaporized=""/>
    <tripinfo id="s10_in_rick.2" depart="92.00" departLane="-1170388412#0_0" departPos="2.90" departSpeed="0.00" departDelay="2.00" arrival="223.00" arrivalLane="151829692#1_0" arrivalPos="49.23" arrivalSpeed="10.94" duration="131.00" routeLength="1007.59" waitingTime="21.00" waitingCount="1" stopTime="0.00" timeLoss="38.97" rerouteNo="1" devices="tripinfo_s10_in_rick.2 routing_s10_in_rick.2" vType="rickshaw" speedFactor="1.10" vaporized=""/>
    <tripinfo id="hw_n_car.0" depart="0.00" departLane="177566553#6_0" departPos="4.60" departSpeed="0.00" departDelay="0.00" arrival="224.00" arrivalLane="151829692#1_0" arrivalPos="49.23" arrivalSpeed="12.51" duration="224.00" routeLength="2177.70" waitingTime="49.00" waitingCount="2" stopTime="0.00" timeLoss="79.15" rerouteNo="1" devices="tripinfo_hw_n_car.0 routing_hw_n_car.0" vType="car" speedFactor="0.94" vaporized=""/>
    <tripinfo id="s8_in_bike.1" depart="24.00" departLane="-553958820#10.154_0" departPos="2.10" departSpeed="0.00" departDelay="0.00" arrival="226.00" arrivalLane="151829692#1_0" arrivalPos="49.23" arrivalSpeed="14.75" duration="202.00" routeLength="1192.31" waitingTime="84.00" waitingCount="3" stopTime="0.00" timeLoss="128.53" rerouteNo="1" devices="tripinfo_s8_in_bike.1 routing_s8_in_bike.1" vType="motorbike" speedFactor="1.18" vaporized=""/>
    <tripinfo id="s10_out_car.3" depart="100.00" departLane="1189082075#5.102_0" departPos="4.60" departSpeed="0.00" departDelay="10.00" arrival="226.00" arrivalLane="1170388412#0_0" arrivalPos="277.72" arrivalSpeed="13.20" duration="126.00" routeLength="1155.78" waitingTime="21.00" waitingCount="1" stopTime="0.00" timeLoss="40.63" rerouteNo="1" devices="tripinfo_s10_out_car.3 routing_s10_out_car.3" vType="car" speedFactor="1.01" vaporized=""/>
    <tripinfo id="ns_rickshaw.0" depart="4.00" departLane="1465267571#5_0" departPos="2.90" departSpeed="0.00" departDelay="4.00" arrival="228.00" arrivalLane="183255900#1_0" arrivalPos="24.62" arrivalSpeed="10.66" duration="224.00" routeLength="1494.50" waitingTime="59.00" waitingCount="3" stopTime="0.00" timeLoss="89.13" rerouteNo="1" devices="tripinfo_ns_rickshaw.0 routing_ns_rickshaw.0" vType="rickshaw" speedFactor="1.01" vaporized=""/>
    <tripinfo id="sn_bike.4" depart="53.00" departLane="1189082075#5.102_0" departPos="2.10" departSpeed="0.00" departDelay="10.02" arrival="228.00" arrivalLane="151829692#1_0" arrivalPos="49.23" arrivalSpeed="12.45" duration="175.00" routeLength="1479.35" waitingTime="23.00" waitingCount="2" stopTime="0.00" timeLoss="70.53" rerouteNo="1" devices="tripinfo_sn_bike.4 routing_sn_bike.4" vType="motorbike" speedFactor="1.02" vaporized=""/>
    <tripinfo id="ns_car.2" depart="30.00" departLane="1465267571#5_0" departPos="4.60" departSpeed="0.00" departDelay="11.05" arrival="230.00" arrivalLane="183255900#1_0" arrivalPos="24.62" arrivalSpeed="15.03" duration="200.00" routeLength="1496.22" waitingTime="44.00" waitingCount="4" stopTime="0.00" timeLoss="105.77" rerouteNo="1" devices="tripinfo_ns_car.2 routing_ns_car.2" vType="car" speedFactor="1.15" vaporized=""/>
    <tripinfo id="hw_n_bike.0" depart="2.00" departLane="177566553#6_0" departPos="2.10" departSpeed="0.00" departDelay="2.00" arrival="231.00" arrivalLane="151829692#1_0" arrivalPos="49.23" arrivalSpeed="10.29" duration="229.00" routeLength="2176.05" waitingTime="49.00" waitingCount="2" stopTime="0.00" timeLoss="85.18" rerouteNo="1" devices="tripinfo_hw_n_bike.0 routing_hw_n_bike.0" vType="motorbike" speedFactor="0.86" vaporized=""/>
    <tripinfo id="ns_bike.2" depart="32.00" departLane="1465267571#5_0" departPos="2.10" departSpeed="0.00" departDelay="10.51" arrival="232.00" arrivalLane="183255900#1_1" arrivalPos="24.62" arrivalSpeed="15.38" duration="200.00" routeLength="1495.30" waitingTime="38.00" waitingCount="5" stopTime="0.00" timeLoss="107.15" rerouteNo="1" devices="tripinfo_ns_bike.2 routing_ns_bike.2" vType="motorbike" speedFactor="1.17" vaporized=""/>
    <tripinfo id="sn_car.5" depart="56.00" departLane="1189082075#5.102_0" departPos="4.60" departSpeed="0.00" departDelay="8.63" arrival="233.00" arrivalLane="151829692#1_0" arrivalPos="49.23" arrivalSpeed="13.67" duration="177.00" routeLength="1476.85" waitingTime="19.00" waitingCount="2" stopTime="0.00" timeLoss="71.27" rerouteNo="1" devices="tripinfo_sn_car.5 routing_sn_car.5" vType="car" speedFactor="1.02" vaporized=""/>
    <tripinfo id="s8_out_bike.4" depart="111.00" departLane="1189082075#5.102_0" departPos="2.10" departSpeed="0.00" departDelay="15.00" arrival="233.00" arrivalLane="553958820#10_0" arrivalPos="61.27" arrivalSpeed="13.77" duration="122.00" routeLength="1255.51" waitingTime="9.00" waitingCount="1" stopTime="0.00" timeLoss="39.12" rerouteNo="1" devices="tripinfo_s8_out_bike.4 routing_s8_out_bike.4" vType="motorbike" speedFactor="1.10" vaporized=""/>
    <tripinfo id="ns_car.5" depart="56.00" departLane="1465267571#5_0" departPos="4.60" departSpeed="0.00" departDelay="8.63" arrival="234.00" arrivalLane="183255900#1_1" arrivalPos="24.62" arrivalSpeed="14.75" duration="178.00" routeLength="1496.22" waitingTime="25.00" waitingCount="3" stopTime="0.00" timeLoss="81.30" rerouteNo="1" devices="tripinfo_ns_car.5 routing_ns_car.5" vType="car" speedFactor="1.12" vaporized=""/>
    <tripinfo id="sn_bike.8" depart="97.00" departLane="1189082075#5.102_0" departPos="2.10" departSpeed="0.00" departDelay="11.03" arrival="234.00" arrivalLane="151829692#1_0" arrivalPos="49.23" arrivalSpeed="13.86" duration="137.00" routeLength="1479.35" waitingTime="2.00" waitingCount="1" stopTime="0.00" timeLoss="37.37" rerouteNo="1" devices="tripinfo_sn_bike.8 routing_sn_bike.8" vType="motorbike" speedFactor="1.07" vaporized=""/>
    <tripinfo id="s_hw_car.1" depart="36.00" departLane="1189082075#5.102_0" departPos="4.60" departSpeed="0.00" departDelay="12.00" arrival="235.00" arrivalLane="1265532934#1_0" arrivalPos="99.94" arrivalSpeed="15.56" duration="199.00" routeLength="2291.93" waitingTime="28.00" waitingCount="1" stopTime="0.00" timeLoss="48.68" rerouteNo="1" devices="tripinfo_s_hw_car.1 routing_s_hw_car.1" vType="car" speedFactor="0.97" vaporized=""/>
    <tripinfo id="s_hw_car.0" depart="18.00" departLane="1189082075#5.102_0" departPos="4.60" departSpeed="0.00" departDelay="18.00" arrival="236.00" arrivalLane="1265532934#1_0" arrivalPos="99.94" arrivalSpeed="16.19" duration="218.00" routeLength="2297.34" waitingTime="49.00" waitingCount="3" stopTime="0.00" timeLoss="76.67" rerouteNo="1" devices="tripinfo_s_hw_car.0 routing_s_hw_car.0" vType="car" speedFactor="1.12" vaporized=""/>
    <tripinfo id="hw_truck.0" depart="10.00" departLane="177566553#6_0" departPos="8.10" departSpeed="0.00" departDelay="10.00" arrival="236.00" arrivalLane="151829692#1_0" arrivalPos="49.23" arrivalSpeed="13.82" duration="226.00" routeLength="2174.20" waitingTime="30.00" waitingCount="1" stopTime="0.00" timeLoss="68.31" rerouteNo="1" devices="tripinfo_hw_truck.0 routing_hw_truck.0" vType="truck" speedFactor="1.00" vaporized=""/>
    <tripinfo id="ns_car.7" depart="75.00" departLane="1465267571#5_0" departPos="4.60" departSpeed="0.00" departDelay="8.68" arrival="236.00" arrivalLane="183255900#1_1" arrivalPos="24.62" arrivalSpeed="14.99" duration="161.00" routeLength="1492.80" waitingTime="21.00" waitingCount="3" stopTime="0.00" timeLoss="66.50" rerouteNo="1" devices="tripinfo_ns_car.7 routing_ns_car.7" vType="car" speedFactor="1.15" vaporized=""/>
    <tripinfo id="ns_bike.1" depart="27.00" departLane="1465267571#5_0" departPos="2.10" departSpeed="0.00" departDelay="16.25" arrival="237.00" arrivalLane="183255900#1_0" arrivalPos="24.62" arrivalSpeed="10.93" duration="210.00" routeLength="1495.30" waitingTime="44.00" waitingCount="4" stopTime="0.00" timeLoss="95.95" rerouteNo="1" devices="tripinfo_ns_bike.1 routing_ns_bike.1" vType="motorbike" speedFactor="0.95" vaporized=""/>
    <tripinfo id="n_hw_car.0" depart="18.00" departLane="1465267571#5_0" departPos="4.60" departSpeed="0.00" departDelay="18.00" arrival="238.00" arrivalLane="1265532934#1_0" arrivalPos="99.94" arrivalSpeed="15.92" duration="220.00" routeLength="2166.35" waitingTime="40.00" waitingCount="3" stopTime="0.00" timeLoss="83.59" rerouteNo="1" devices="tripinfo_n_hw_car.0 routing_n_hw_car.0" vType="car" speedFactor="1.05" vaporized=""/>
    <tripinfo id="sn_car.9" depart="95.00" departLane="1189082075#5.102_0" departPos="4.60" departSpeed="0.00" departDelay="9.73" arrival="239.00" arrivalLane="151829692#1_0" arrivalPos="49.23" arrivalSpeed="12.03" duration="144.00" routeLength="1476.85" waitingTime="0.00" waitingCount="0" stopTime="0.00" timeLoss="24.11" rerouteNo="1" devices="tripinfo_sn_car.9 routing_sn_car.9" vType="car" speedFactor="0.89" vaporized=""/>
    <tripinfo id="s8_out_car.0" depart="21.00" departLane="1465267571#5_0" departPos="4.60" departSpeed="0.00" departDelay="21.00" arrival="240.00" arrivalLane="553958820#10_0" arrivalPos="61.27" arrivalSpeed="12.73" duration="219.00" routeLength="1211.47" waitingTime="82.00" waitingCount="5" stopTime="0.00" timeLoss="124.92" rerouteNo="1" devices="tripinfo_s8_out_car.0 routing_s8_out_car.0" vType="car" speedFactor="0.94" vaporized=""/>
    <tripinfo id="sn_bike.5" depart="63.00" departLane="1189082075#5.102_0" departPos="2.10" departSpeed="0.00" departDelay="9.27" arrival="240.00" arrivalLane="151829692#1_0" arrivalPos="49.23" arrivalSpeed="13.56" duration="177.00" routeLength="1479.35" waitingTime="19.00" waitingCount="3" stopTime="0.00" timeLoss="72.85" rerouteNo="1" devices="tripinfo_sn_bike.5 routing_sn_bike.5" vType="motorbike" speedFactor="1.02" vaporized=""/>
    <tripinfo id="ns_car.6" depart="66.00" departLane="1465267571#5_0" departPos="4.60" departSpeed="0.00" departDelay="9.16" arrival="240.00" arrivalLane="183255900#1_1" arrivalPos="24.62" arrivalSpeed="14.26" duration="174.00" routeLength="1496.22" waitingTime="27.00" waitingCount="2" stopTime="0.00" timeLoss="71.37" rerouteNo="1" devices="tripinfo_ns_car.6 routing_ns_car.6" vType="car" speedFactor="1.06" vaporized=""/>
    <tripinfo id="sn_bike.7" depart="92.00" departLane="1189082075#5.102_0" departPos="2.10" departSpeed="0.00" departDelay="16.78" arrival="240.00" arrivalLane="151829692#1_1" arrivalPos="49.23" arrivalSpeed="12.52" duration="148.00" routeLength="1482.85" waitingTime="0.00" waitingCount="0" stopTime="0.00" timeLoss="36.24" rerouteNo="1" devices="tripinfo_sn_bike.7 routing_sn_bike.7" vType="motorbike" speedFactor="0.96" vaporized=""/>
    <tripinfo id="ns_car.1" depart="25.00" departLane="1465267571#5_0" departPos="4.60" departSpeed="0.00" departDelay="15.53" arrival="241.00" arrivalLane="183255900#1_0" arrivalPos="24.62" arrivalSpeed="11.25" duration="216.00" routeLength="1492.80" waitingTime="43.00" waitingCount="5" stopTime="0.00" timeLoss="92.07" rerouteNo="1" devices="tripinfo_ns_car.1 routing_ns_car.1" vType="car" speedFactor="0.87" vaporized=""/>
    <tripinfo id="sn_car.10" depart="106.00" departLane="1189082075#5.102_0" departPos="4.60" departSpeed="0.00" departDelay="11.26" arrival="243.00" arrivalLane="151829692#1_0" arrivalPos="49.23" arrivalSpeed="13.44" duration="137.00" routeLength="1476.73" waitingTime="2.00" waitingCount="2" stopTime="0.00" timeLoss="30.39" rerouteNo="1" devices="tripinfo_sn_car.10 routing_sn_car.10" vType="car" speedFactor="1.00" vaporized=""/>
    <tripinfo id="ns_bike.5" depart="63.00" departLane="1465267571#5_0" departPos="2.10" departSpeed="0.00" departDelay="9.27" arrival="244.00" arrivalLane="183255900#1_1" arrivalPos="24.62" arrivalSpeed="13.73" duration="181.00" routeLength="1498.72" waitingTime="16.00" waitingCount="3" stopTime="0.00" timeLoss="74.88" rerouteNo="1" devices="tripinfo_ns_bike.5 routing_ns_bike.5" vType="motorbike" speedFactor="1.02" vaporized=""/>
    <tripinfo id="hw_s_bike.1" depart="43.00" departLane="177566553#6_0" departPos="2.10" departSpeed="0.00" departDelay="7.00" arrival="246.00" arrivalLane="183255900#1_1" arrivalPos="24.62" arrivalSpeed="13.67" duration="203.00" routeLength="2251.71" waitingTime="33.00" waitingCount="1" stopTime="0.00" timeLoss="68.80" rerouteNo="1" devices="tripinfo_hw_s_bike.1 routing_hw_s_bike.1" vType="motorbike" speedFactor="1.00" vaporized=""/>
    <tripinfo id="hw_n_car.3" depart="54.00" departLane="177566553#6_0" departPos="4.60" departSpeed="0.00" departDelay="0.00" arrival="246.00" arrivalLane="151829692#1_1" arrivalPos="49.23" arrivalSpeed="13.35" duration="192.00" routeLength="2177.17" waitingTime="24.00" waitingCount="1" stopTime="0.00" timeLoss="49.31" rerouteNo="1" devices="tripinfo_hw_n_car.3 routing_hw_n_car.3" vType="car" speedFactor="0.97" vaporized=""/>