<?xml version="1.0" encoding="UTF-8"?>

<!-- generated on 2026-07-05T01:36:56.304336-05:00 by Eclipse SUMO GUI 1.25.0
<sumoConfiguration xmlns:xsi="http://www.w3.org/2001/XMLSchema-instance" xsi:noNamespaceSchemaLocation="http://sumo.dlr.de/xsd/sumoConfiguration.xsd">

    <input>
        <net-file value="../network/smart5_main.net.xml"/>
        <route-files value="../network/smart5.rou.xml"/>
        <additional-files value="../network/smart5.poly.xml"/>
    </input>

    <output>
        <summary-output value="results/summary_smart.xml"/>
        <tripinfo-output value="results/tripinfo_smart.xml"/>
    </output>

    <time>
        <begin value="0"/>
        <end value="1000"/>
        <step-length value="0.1"/>
    </time>

    <traci_server>
        <remote-port value="35021"/>
    </traci_server>

</sumoConfiguration>
-->

<tripinfos xmlns:xsi="http://www.w3.org/2001/XMLSchema-instance" xsi:noNamespaceSchemaLocation="http://sumo.dlr.de/xsd/tripinfo_file.xsd">
    <tripinfo id="s8_out_bike.0" depart="1.60" departLane="1189082075#5.102_0" departPos="2.10" departSpeed="0.00" departDelay="1.60" arrival="97.70" arrivalLane="553958820#10_0" arrivalPos="61.27" arrivalSpeed="19.99" duration="96.10" routeLength="1255.51" waitingTime="11.00" waitingCount="2" stopTime="0.00" timeLoss="32.67" rerouteNo="0" devices="tripinfo_s8_out_bike.0" vType="motorbike" speedFactor="0.94" vaporized=""/>
    <tripinfo id="s8_in_bike.0" depart="0.00" departLane="-553958820#10.154_0" departPos="2.10" departSpeed="0.00" departDelay="0.00" arrival="115.80" arrivalLane="151829692#1_0" arrivalPos="49.23" arrivalSpeed="19.92" duration="115.80" routeLength="1192.31" waitingTime="40.80" waitingCount="1" stopTime="0.00" timeLoss="54.33" rerouteNo="0" devices="tripinfo_s8_in_bike.0" vType="motorbike" speedFactor="0.93" vaporized=""/>
    <tripinfo id="s10_in_bike.0" depart="0.00" departLane="-1170388412#0_0" departPos="2.10" departSpeed="0.00" departDelay="0.00" arrival="129.00" arrivalLane="183255900#1_0" arrivalPos="24.62" arrivalSpeed="19.99" duration="129.00" routeLength="1198.17" waitingTime="45.80" waitingCount="2" stopTime="0.00" timeLoss="59.79" rerouteNo="0" devices="tripinfo_s10_in_bike.0" vType="motorbike" speedFactor="1.09" vaporized=""/>
    <tripinfo id="s10_in_rick.0" depart="4.20" departLane="-1170388412#0_0" departPos="2.90" departSpeed="0.00" departDelay="4.20" arrival="129.30" arrivalLane="151829692#1_0" arrivalPos="49.23" arrivalSpeed="11.04" duration="125.10" routeLength="1007.59" waitingTime="17.80" waitingCount="1" stopTime="0.00" timeLoss="33.40" rerouteNo="0" devices="tripinfo_s10_in_rick.0" vType="rickshaw" speedFactor="1.05" vaporized=""/>
    <tripinfo id="s8_in_car.0" depart="2.20" departLane="-553958820#10.154_0" departPos="4.60" departSpeed="0.00" departDelay="2.20" arrival="130.70" arrivalLane="151829692#1_0" arrivalPos="49.23" arrivalSpeed="14.23" duration="128.50" routeLength="1189.81" waitingTime="42.00" waitingCount="1" stopTime="0.00" timeLoss="55.73" rerouteNo="0" devices="tripinfo_s8_in_car.0" vType="car" speedFactor="0.88" vaporized=""/>
    <tripinfo id="s8_in_bike.1" depart="24.00" departLane="-553958820#10.154_0" departPos="2.10" departSpeed="0.00" departDelay="0.00" arrival="132.00" arrivalLane="151829692#1_0" arrivalPos="49.23" arrivalSpeed="17.01" duration="108.00" routeLength="1192.31" waitingTime="17.10" waitingCount="2" stopTime="0.00" timeLoss="46.87" rerouteNo="0" devices="tripinfo_s8_in_bike.1" vType="motorbike" speedFactor="1.00" vaporized=""/>
    <tripinfo id="s10_in_car.0" depart="2.20" departLane="-1170388412#0_0" departPos="4.60" departSpeed="0.00" departDelay="2.20" arrival="137.10" arrivalLane="183255900#1_0" arrivalPos="24.62" arrivalSpeed="16.63" duration="134.90" routeLength="1195.67" waitingTime="41.30" waitingCount="2" stopTime="0.00" timeLoss="56.67" rerouteNo="0" devices="tripinfo_s10_in_car.0" vType="car" speedFactor="1.03" vaporized=""/>
    <tripinfo id="sn_bike.0" depart="4.20" departLane="1189082075#5.102_0" departPos="2.10" departSpeed="0.00" departDelay="4.20" arrival="137.50" arrivalLane="151829692#1_0" arrivalPos="49.23" arrivalSpeed="19.84" duration="133.30" routeLength="1479.35" waitingTime="38.80" waitingCount="1" stopTime="0.00" timeLoss="58.51" rerouteNo="0" devices="tripinfo_sn_bike.0" vType="motorbike" speedFactor="1.01" vaporized=""/>
    <tripinfo id="sn_bike.1" depart="20.70" departLane="1189082075#5.102_0" departPos="2.10" departSpeed="0.00" departDelay="12.70" arrival="139.90" arrivalLane="151829692#1_0" arrivalPos="49.23" arrivalSpeed="19.82" duration="119.20" routeLength="1479.35" waitingTime="19.90" waitingCount="1" stopTime="0.00" timeLoss="44.63" rerouteNo="0" devices="tripinfo_sn_bike.1" vType="motorbike" speedFactor="1.13" vaporized=""/>
    <tripinfo id="sn_bike.2" depart="24.50" departLane="1189082075#5.102_0" departPos="2.10" departSpeed="0.00" departDelay="8.50" arrival="142.00" arrivalLane="151829692#1_0" arrivalPos="49.23" arrivalSpeed="19.92" duration="117.50" routeLength="1479.35" waitingTime="14.00" waitingCount="2" stopTime="0.00" timeLoss="42.74" rerouteNo="0" devices="tripinfo_sn_bike.2" vType="motorbike" speedFactor="0.99" vaporized=""/>
    <tripinfo id="ns_bike.0" depart="1.60" departLane="1465267571#5_0" departPos="2.10" departSpeed="0.00" departDelay="1.60" arrival="147.40" arrivalLane="183255900#1_0" arrivalPos="24.62" arrivalSpeed="19.96" duration="145.80" routeLength="1495.30" waitingTime="47.60" waitingCount="2" stopTime="0.00" timeLoss="68.88" rerouteNo="0" devices="tripinfo_ns_bike.0" vType="motorbike" speedFactor="1.05" vaporized=""/>
    <tripinfo id="sn_car.0" depart="9.70" departLane="1189082075#5.102_0" departPos="4.60" departSpeed="0.00" departDelay="9.70" arrival="147.50" arrivalLane="151829692#1_0" arrivalPos="49.23" arrivalSpeed="16.61" duration="137.80" routeLength="1476.73" waitingTime="24.70" waitingCount="2" stopTime="0.00" timeLoss="48.73" rerouteNo="0" devices="tripinfo_sn_car.0" vType="car" speedFactor="0.97" vaporized=""/>
    <tripinfo id="sn_car.2" depart="22.90" departLane="1189082075#5.102_0" departPos="4.60" departSpeed="0.00" departDelay="8.50" arrival="149.50" arrivalLane="151829692#1_0" arrivalPos="49.23" arrivalSpeed="16.63" duration="126.60" routeLength="1476.85" waitingTime="6.70" waitingCount="2" stopTime="0.00" timeLoss="37.50" rerouteNo="0" devices="tripinfo_sn_car.2" vType="car" speedFactor="1.01" vaporized=""/>
    <tripinfo id="s10_out_bike.0" depart="15.20" departLane="1465267571#5_0" departPos="2.10" departSpeed="0.00" departDelay="15.20" arrival="150.10" arrivalLane="1170388412#0_0" arrivalPos="277.72" arrivalSpeed="15.44" duration="134.90" routeLength="1095.73" waitingTime="52.90" waitingCount="2" stopTime="0.00" timeLoss="73.39" rerouteNo="0" devices="tripinfo_s10_out_bike.0" vType="motorbike" speedFactor="1.12" vaporized=""/>
    <tripinfo id="sn_bike.3" depart="33.10" departLane="1189082075#5.102_0" departPos="2.10" departSpeed="0.00" departDelay="9.10" arrival="151.00" arrivalLane="151829692#1_0" arrivalPos="49.23" arrivalSpeed="19.82" duration="117.90" routeLength="1479.35" waitingTime="2.70" waitingCount="1" stopTime="0.00" timeLoss="42.96" rerouteNo="0" devices="tripinfo_sn_bike.3" vType="motorbike" speedFactor="0.88" vaporized=""/>
    <tripinfo id="sn_bike.4" depart="39.40" departLane="1189082075#5.102_0" departPos="2.10" departSpeed="0.00" departDelay="7.40" arrival="152.10" arrivalLane="151829692#1_0" arrivalPos="49.23" arrivalSpeed="19.87" duration="112.70" routeLength="1479.35" waitingTime="1.00" waitingCount="1" stopTime="0.00" timeLoss="38.01" rerouteNo="0" devices="tripinfo_sn_bike.4" vType="motorbike" speedFactor="1.02" vaporized=""/>
    <tripinfo id="ns_car.0" depart="7.10" departLane="1465267571#5_0" departPos="4.60" departSpeed="0.00" departDelay="7.10" arrival="154.00" arrivalLane="183255900#1_1" arrivalPos="24.62" arrivalSpeed="16.57" duration="146.90" routeLength="1492.80" waitingTime="39.80" waitingCount="1" stopTime="0.00" timeLoss="55.10" rerouteNo="0" devices="tripinfo_ns_car.0" vType="car" speedFactor="0.89" vaporized=""/>
    <tripinfo id="sn_car.4" depart="35.30" departLane="1189082075#5.102_0" departPos="4.60" departSpeed="0.00" departDelay="6.50" arrival="154.60" arrivalLane="151829692#1_0" arrivalPos="49.23" arrivalSpeed="16.68" duration="119.30" routeLength="1476.85" waitingTime="0.00" waitingCount="0" stopTime="0.00" timeLoss="30.23" rerouteNo="0" devices="tripinfo_sn_car.4" vType="car" speedFactor="1.02" vaporized=""/>
    <tripinfo id="sn_bike.5" depart="44.40" departLane="1189082075#5.102_0" departPos="2.10" departSpeed="0.00" departDelay="4.40" arrival="155.90" arrivalLane="151829692#1_0" arrivalPos="49.23" arrivalSpeed="20.00" duration="111.50" routeLength="1479.35" waitingTime="0.00" waitingCount="0" stopTime="0.00" timeLoss="36.66" rerouteNo="0" devices="tripinfo_sn_bike.5" vType="motorbike" speedFactor="0.91" vaporized=""/>
    <tripinfo id="sn_car.5" depart="42.80" departLane="1189082075#5.102_0" departPos="4.60" departSpeed="0.00" departDelay="6.80" arrival="157.70" arrivalLane="151829692#1_1" arrivalPos="49.23" arrivalSpeed="16.70" duration="114.90" routeLength="1480.47" waitingTime="0.00" waitingCount="0" stopTime="0.00" timeLoss="25.54" rerouteNo="0" devices="tripinfo_sn_car.5" vType="car" speedFactor="0.94" vaporized=""/>
    <tripinfo id="sn_bus.0" depart="6.00" departLane="1189082075#5.102_0" departPos="10.60" departSpeed="0.00" departDelay="6.00" arrival="160.00" arrivalLane="151829692#1_0" arrivalPos="49.23" arrivalSpeed="13.90" duration="154.00" routeLength="1470.73" waitingTime="13.70" waitingCount="1" stopTime="0.00" timeLoss="47.75" rerouteNo="0" devices="tripinfo_sn_bus.0" vType="bus" speedFactor="1.00" vaporized=""/>
    <tripinfo id="s10_out_car.0" depart="0.00" departLane="1189082075#5.102_0" departPos="4.60" departSpeed="0.00" departDelay="0.00" arrival="161.70" arrivalLane="1170388412#0_0" arrivalPos="277.72" arrivalSpeed="13.68" duration="161.70" routeLength="1186.21" waitingTime="62.70" waitingCount="3" stopTime="0.00" timeLoss="84.57" rerouteNo="0" devices="tripinfo_s10_out_car.0" vType="car" speedFactor="0.99" vaporized=""/>
    <tripinfo id="s10_out_car.1" depart="37.80" departLane="1189082075#5.102_0" departPos="4.60" departSpeed="0.00" departDelay="7.80" arrival="163.20" arrivalLane="1170388412#0_0" arrivalPos="277.72" arrivalSpeed="13.86" duration="125.40" routeLength="1186.21" waitingTime="7.10" waitingCount="3" stopTime="0.00" timeLoss="48.64" rerouteNo="0" devices="tripinfo_s10_out_car.1" vType="car" speedFactor="1.00" vaporized=""/>
    <tripinfo id="ns_bus.0" depart="3.50" departLane="1465267571#5_0" departPos="10.60" departSpeed="0.00" departDelay="3.50" arrival="163.30" arrivalLane="183255900#1_1" arrivalPos="24.62" arrivalSpeed="13.88" duration="159.80" routeLength="1490.22" waitingTime="30.80" waitingCount="1" stopTime="0.00" timeLoss="52.45" rerouteNo="0" devices="tripinfo_ns_bus.0" vType="bus" speedFactor="1.00" vaporized=""/>
    <tripinfo id="s8_in_rick.0" depart="4.20" departLane="-553958820#10.154_0" departPos="2.90" departSpeed="0.00" departDelay="4.20" arrival="164.70" arrivalLane="183255900#1_0" arrivalPos="24.62" arrivalSpeed="11.10" duration="160.50" routeLength="1311.55" waitingTime="28.70" waitingCount="2" stopTime="0.00" timeLoss="41.53" rerouteNo="0" devices="tripinfo_s8_in_rick.0" vType="rickshaw" speedFactor="0.94" vaporized=""/>
    <tripinfo id="ns_bike.1" depart="20.70" departLane="1465267571#5_0" departPos="2.10" departSpeed="0.00" departDelay="12.70" arrival="165.00" arrivalLane="183255900#1_1" arrivalPos="24.62" arrivalSpeed="19.67" duration="144.30" routeLength="1495.30" waitingTime="36.00" waitingCount="1" stopTime="0.00" timeLoss="66.66" rerouteNo="0" devices="tripinfo_ns_bike.1" vType="motorbike" speedFactor="0.95" vaporized=""/>
    <tripinfo id="ns_bike.2" depart="23.40" departLane="1465267571#5_0" departPos="2.10" departSpeed="0.00" departDelay="7.40" arrival="166.10" arrivalLane="183255900#1_1" arrivalPos="24.62" arrivalSpeed="19.90" duration="142.70" routeLength="1495.30" waitingTime="34.50" waitingCount="1" stopTime="0.00" timeLoss="66.48" rerouteNo="0" devices="tripinfo_ns_bike.2" vType="motorbike" speedFactor="1.17" vaporized=""/>
    <tripinfo id="ns_car.1" depart="19.00" departLane="1465267571#5_0" departPos="4.60" departSpeed="0.00" departDelay="11.80" arrival="166.30" arrivalLane="183255900#1_0" arrivalPos="24.62" arrivalSpeed="16.23" duration="147.30" routeLength="1492.80" waitingTime="38.00" waitingCount="1" stopTime="0.00" timeLoss="55.51" rerouteNo="0" devices="tripinfo_ns_car.1" vType="car" speedFactor="0.87" vaporized=""/>
    <tripinfo id="ns_bike.3" depart="30.90" departLane="1465267571#5_0" departPos="2.10" departSpeed="0.00" departDelay="6.90" arrival="167.20" arrivalLane="183255900#1_1" arrivalPos="24.62" arrivalSpeed="19.89" duration="136.30" routeLength="1495.30" waitingTime="28.50" waitingCount="1" stopTime="0.00" timeLoss="59.41" rerouteNo="0" devices="tripinfo_ns_bike.3" vType="motorbike" speedFactor="1.04" vaporized=""/>
    <tripinfo id="ns_car.3" depart="29.30" departLane="1465267571#5_0" departPos="4.60" departSpeed="0.00" departDelay="7.70" arrival="169.70" arrivalLane="183255900#1_0" arrivalPos="24.62" arrivalSpeed="16.66" duration="140.40" routeLength="1492.80" waitingTime="30.30" waitingCount="1" stopTime="0.00" timeLoss="49.27" rerouteNo="0" devices="tripinfo_ns_car.3" vType="car" speedFactor="0.96" vaporized=""/>
    <tripinfo id="hw_s_bike.0" depart="5.20" departLane="177566553#6_0" departPos="2.10" departSpeed="0.00" departDelay="5.20" arrival="182.30" arrivalLane="183255900#1_1" arrivalPos="24.62" arrivalSpeed="19.82" duration="177.10" routeLength="2245.57" waitingTime="5.30" waitingCount="1" stopTime="0.00" timeLoss="18.89" rerouteNo="0" devices="tripinfo_hw_s_bike.0" vType="motorbike" speedFactor="1.01" vaporized=""/>
    <tripinfo id="hw_s_car.0" depart="6.20" departLane="177566553#6_0" departPos="4.60" departSpeed="0.00" departDelay="6.20" arrival="184.20" arrivalLane="183255900#1_0" arrivalPos="24.62" arrivalSpeed="16.61" duration="178.00" routeLength="2243.07" waitingTime="3.20" waitingCount="1" stopTime="0.00" timeLoss="16.64" rerouteNo="0" devices="tripinfo_hw_s_car.0" vType="car" speedFactor="1.08" vaporized=""/>
    <tripinfo id="s10_in_bike.1" depart="24.00" departLane="-1170388412#0_0" departPos="2.10" departSpeed="0.00" departDelay="0.00" arrival="188.00" arrivalLane="183255900#1_1" arrivalPos="24.62" arrivalSpeed="19.92" duration="164.00" routeLength="1198.17" waitingTime="78.20" waitingCount="2" stopTime="0.00" timeLoss="93.24" rerouteNo="0" devices="tripinfo_s10_in_bike.1" vType="motorbike" speedFactor="1.04" vaporized=""/>
    <tripinfo id="hw_s_car.1" depart="16.90" departLane="177566553#6_0" departPos="4.60" departSpeed="0.00" departDelay="2.50" arrival="188.30" arrivalLane="183255900#1_0" arrivalPos="24.62" arrivalSpeed="16.67" duration="171.40" routeLength="2243.07" waitingTime="0.00" waitingCount="0" stopTime="0.00" timeLoss="18.08" rerouteNo="0" devices="tripinfo_hw_s_car.1" vType="car" speedFactor="1.18" vaporized=""/>
    <tripinfo id="s10_out_car.2" depart="60.60" departLane="1189082075#5.102_0" departPos="4.60" departSpeed="0.00" departDelay="0.60" arrival="190.90" arrivalLane="1170388412#0_0" arrivalPos="277.72" arrivalSpeed="14.01" duration="130.30" routeLength="1186.21" waitingTime="13.80" waitingCount="1" stopTime="0.00" timeLoss="53.81" rerouteNo="0" devices="tripinfo_s10_out_car.2" vType="car" speedFactor="1.01" vaporized=""/>
    <tripinfo id="s10_out_bike.1" depart="31.80" departLane="1465267571#5_0" departPos="2.10" departSpeed="0.00" departDelay="7.80" arrival="203.60" arrivalLane="1170388412#0_0" arrivalPos="277.72" arrivalSpeed="14.90" duration="171.80" routeLength="1099.38" waitingTime="64.20" waitingCount="3" stopTime="0.00" timeLoss="109.20" rerouteNo="0" devices="tripinfo_s10_out_bike.1" vType="motorbike" speedFactor="1.09" vaporized=""/>
    <tripinfo id="sn_bike.6" depart="50.90" departLane="1189082075#5.102_0" departPos="2.10" departSpeed="0.00" departDelay="2.90" arrival="205.40" arrivalLane="151829692#1_0" arrivalPos="49.23" arrivalSpeed="19.89" duration="154.50" routeLength="1479.35" waitingTime="46.80" waitingCount="1" stopTime="0.00" timeLoss="79.79" rerouteNo="0" devices="tripinfo_sn_bike.6" vType="motorbike" speedFactor="1.03" vaporized=""/>
    <tripinfo id="ns_bike.4" depart="38.00" departLane="1465267571#5_0" departPos="2.10" departSpeed="0.00" departDelay="6.00" arrival="205.50" arrivalLane="183255900#1_1" arrivalPos="24.62" arrivalSpeed="19.83" duration="167.50" routeLength="1495.30" waitingTime="40.10" waitingCount="2" stopTime="0.00" timeLoss="91.23" rerouteNo="0" devices="tripinfo_ns_bike.4" vType="motorbike" speedFactor="1.14" vaporized=""/>
    <tripinfo id="ns_car.4" depart="34.00" departLane="1465267571#5_0" departPos="4.60" departSpeed="0.00" departDelay="5.20" arrival="207.10" arrivalLane="183255900#1_0" arrivalPos="24.62" arrivalSpeed="16.62" duration="173.10" routeLength="1492.80" waitingTime="50.60" waitingCount="3" stopTime="0.00" timeLoss="83.36" rerouteNo="0" devices="tripinfo_ns_car.4" vType="car" speedFactor="1.17" vaporized=""/>
    <tripinfo id="ns_bike.5" depart="43.00" departLane="1465267571#5_0" departPos="2.10" departSpeed="0.00" departDelay="3.00" arrival="207.70" arrivalLane="183255900#1_1" arrivalPos="24.62" arrivalSpeed="19.98" duration="164.70" routeLength="1495.30" waitingTime="40.70" waitingCount="2" stopTime="0.00" timeLoss="86.45" rerouteNo="0" devices="tripinfo_ns_bike.5" vType="motorbike" speedFactor="0.88" vaporized=""/>
    <tripinfo id="s10_out_bike.2" depart="49.50" departLane="1465267571#5_0" departPos="2.10" departSpeed="0.00" departDelay="1.50" arrival="209.30" arrivalLane="1170388412#0_0" arrivalPos="277.72" arrivalSpeed="13.51" duration="159.80" routeLength="1099.15" waitingTime="28.20" waitingCount="3" stopTime="0.00" timeLoss="94.01" rerouteNo="0" devices="tripinfo_s10_out_bike.2" vType="motorbike" speedFactor="0.98" vaporized=""/>
    <tripinfo id="sn_car.1" depart="19.40" departLane="1189082075#5.102_0" departPos="4.60" departSpeed="0.00" departDelay="12.20" arrival="209.50" arrivalLane="151829692#1_0" arrivalPos="49.23" arrivalSpeed="16.57" duration="190.10" routeLength="1476.73" waitingTime="62.40" waitingCount="3" stopTime="0.00" timeLoss="100.85" rerouteNo="0" devices="tripinfo_sn_car.1" vType="car" speedFactor="0.92" vaporized=""/>
    <tripinfo id="sn_bike.7" depart="57.20" departLane="1189082075#5.102_0" departPos="2.10" departSpeed="0.00" departDelay="1.20" arrival="210.80" arrivalLane="151829692#1_0" arrivalPos="49.23" arrivalSpeed="19.91" duration="153.60" routeLength="1479.35" waitingTime="40.80" waitingCount="15" stopTime="0.00" timeLoss="78.79" rerouteNo="0" devices="tripinfo_sn_bike.7" vType="motorbike" speedFactor="1.01" vaporized=""/>
    <tripinfo id="ns_car.2" depart="21.70" departLane="1465267571#5_0" departPos="4.60" departSpeed="0.00" departDelay="7.30" arrival="212.70" arrivalLane="183255900#1_1" arrivalPos="24.62" arrivalSpeed="16.66" duration="191.00" routeLength="1496.22" waitingTime="50.80" waitingCount="2" stopTime="0.00" timeLoss="100.95" rerouteNo="0" devices="tripinfo_ns_car.2" vType="car" speedFactor="1.15" vaporized=""/>
    <tripinfo id="sn_car.6" depart="48.30" departLane="1189082075#5.102_0" departPos="4.60" departSpeed="0.00" departDelay="5.10" arrival="213.10" arrivalLane="151829692#1_0" arrivalPos="49.23" arrivalSpeed="16.67" duration="164.80" routeLength="1476.85" waitingTime="42.20" waitingCount="1" stopTime="0.00" timeLoss="75.59" rerouteNo="0" devices="tripinfo_sn_car.6" vType="car" speedFactor="0.94" vaporized=""/>
    <tripinfo id="ns_car.5" depart="41.40" departLane="1465267571#5_0" departPos="4.60" departSpeed="0.00" departDelay="5.40" arrival="214.60" arrivalLane="183255900#1_1" arrivalPos="24.62" arrivalSpeed="16.64" duration="173.20" routeLength="1496.22" waitingTime="34.80" waitingCount="2" stopTime="0.00" timeLoss="82.30" rerouteNo="0" devices="tripinfo_ns_car.5" vType="car" speedFactor="1.02" vaporized=""/>
    <tripinfo id="hw_bus.0" depart="0.00" departLane="177566553#6_0" departPos="10.60" departSpeed="0.00" departDelay="0.00" arrival="216.10" arrivalLane="183255900#1_0" arrivalPos="24.62" arrivalSpeed="13.89" duration="216.10" routeLength="2237.07" waitingTime="4.80" waitingCount="2" stopTime="0.00" timeLoss="34.37" rerouteNo="0" devices="tripinfo_hw_bus.0" vType="bus" speedFactor="1.00" vaporized=""/>
    <tripinfo id="ns_car.6" depart="47.00" departLane="1465267571#5_0" departPos="4.60" departSpeed="0.00" departDelay="3.80" arrival="216.70" arrivalLane="183255900#1_1" arrivalPos="24.62" arrivalSpeed="16.67" duration="169.70" routeLength="1492.80" waitingTime="25.20" waitingCount="2" stopTime="0.00" timeLoss="78.55" rerouteNo="0" devices="tripinfo_ns_car.6" vType="car" speedFactor="0.97" vaporized=""/>
    <tripinfo id="hw_s_bike.1" depart="19.40" departLane="177566553#6_0" departPos="2.10" departSpeed="0.00" departDelay="1.40" arrival="217.80" arrivalLane="183255900#1_0" arrivalPos="24.62" arrivalSpeed="17.28" duration="198.40" routeLength="2245.57" waitingTime="0.00" waitingCount="0" stopTime="0.00" timeLoss="36.22" rerouteNo="0" devices="tripinfo_hw_s_bike.1" vType="motorbike" speedFactor="0.97" vaporized=""/>
    <tripinfo id="ns_car.7" depart="51.60" departLane="1465267571#5_0" departPos="4.60" departSpeed="0.00" departDelay="1.20" arrival="218.40" arrivalLane="183255900#1_1" arrivalPos="24.62" arrivalSpeed="16.67" duration="166.80" routeLength="1496.22" waitingTime="16.70" waitingCount="2" stopTime="0.00" timeLoss="75.78" rerouteNo="0" devices="tripinfo_ns_car.7" vType="car" speedFactor="1.00" vaporized=""/>
    <tripinfo id="sn_car.8" depart="58.20" departLane="1189082075#5.102_0" departPos="4.60" departSpeed="0.00" departDelay="0.60" arrival="218.50" arrivalLane="151829692#1_1" arrivalPos="49.23" arrivalSpeed="16.69" duration="160.30" routeLength="1480.47" waitingTime="31.30" waitingCount="2" stopTime="0.00" timeLoss="70.75" rerouteNo="0" devices="tripinfo_sn_car.8" vType="car" speedFactor="0.83" vaporized=""/>
    <tripinfo id="ns_bike.7" depart="56.00" departLane="1465267571#5_0" departPos="2.10" departSpeed="0.00" departDelay="0.00" arrival="219.70" arrivalLane="183255900#1_1" arrivalPos="24.62" arrivalSpeed="19.86" duration="163.70" routeLength="1495.30" waitingTime="11.30" waitingCount="2" stopTime="0.00" timeLoss="86.77" rerouteNo="0" devices="tripinfo_ns_bike.7" vType="motorbike" speedFactor="1.04" vaporized=""/>
    <tripinfo id="sn_car.9" depart="65.80" departLane="1189082075#5.102_0" departPos="4.60" departSpeed="0.00" departDelay="1.00" arrival="220.10" arrivalLane="151829692#1_1" arrivalPos="49.23" arrivalSpeed="16.62" duration="154.30" routeLength="1480.47" waitingTime="23.10" waitingCount="2" stopTime="0.00" timeLoss="64.92" rerouteNo="0" devices="tripinfo_sn_car.9" vType="car" speedFactor="0.95" vaporized=""/>
    <tripinfo id="sn_rickshaw.1" depart="27.40" departLane="1189082075#5.102_0" departPos="2.90" departSpeed="0.00" departDelay="7.40" arrival="220.20" arrivalLane="151829692#1_0" arrivalPos="49.23" arrivalSpeed="11.04" duration="192.80" routeLength="1478.55" waitingTime="31.30" waitingCount="1" stopTime="0.00" timeLoss="59.45" rerouteNo="0" devices="tripinfo_sn_rickshaw.1" vType="rickshaw" speedFactor="1.03" vaporized=""/>
    <tripinfo id="ns_bike.8" depart="64.80" departLane="1465267571#5_0" departPos="2.10" departSpeed="0.00" departDelay="0.80" arrival="220.70" arrivalLane="183255900#1_1" arrivalPos="24.62" arrivalSpeed="20.00" duration="155.90" routeLength="1495.30" waitingTime="5.90" waitingCount="1" stopTime="0.00" timeLoss="79.12" rerouteNo="0" devices="tripinfo_ns_bike.8" vType="motorbike" speedFactor="1.06" vaporized=""/>
    <tripinfo id="sn_bike.8" depart="64.70" departLane="1189082075#5.102_0" departPos="2.10" departSpeed="0.00" departDelay="0.70" arrival="221.40" arrivalLane="151829692#1_1" arrivalPos="49.23" arrivalSpeed="19.62" duration="156.70" routeLength="1482.97" waitingTime="24.60" waitingCount="2" stopTime="0.00" timeLoss="81.70" rerouteNo="0" devices="tripinfo_sn_bike.8" vType="motorbike" speedFactor="0.96" vaporized=""/>
    <tripinfo id="ns_bike.6" depart="48.60" departLane="1465267571#5_0" departPos="2.10" departSpeed="0.00" departDelay="0.60" arrival="221.80" arrivalLane="183255900#1_1" arrivalPos="24.62" arrivalSpeed="19.99" duration="173.20" routeLength="1495.30" waitingTime="18.90" waitingCount="3" stopTime="0.00" timeLoss="95.86" rerouteNo="0" devices="tripinfo_ns_bike.6" vType="motorbike" speedFactor="0.98" vaporized=""/>
    <tripinfo id="sn_rickshaw.0" depart="11.20" departLane="1189082075#5.102_0" departPos="2.90" departSpeed="0.00" departDelay="11.20" arrival="222.20" arrivalLane="151829692#1_0" arrivalPos="49.23" arrivalSpeed="11.01" duration="211.00" routeLength="1478.43" waitingTime="29.60" waitingCount="2" stopTime="0.00" timeLoss="77.36" rerouteNo="0" devices="tripinfo_sn_rickshaw.0" vType="rickshaw" speedFactor="0.89" vaporized=""/>
    <tripinfo id="hw_n_bike.0" depart="2.40" departLane="177566553#6_0" departPos="2.10" departSpeed="0.00" departDelay="2.40" arrival="223.40" arrivalLane="151829692#1_0" arrivalPos="49.23" arrivalSpeed="13.43" duration="221.00" routeLength="2180.20" waitingTime="32.10" waitingCount="2" stopTime="0.00" timeLoss="72.52" rerouteNo="0" devices="tripinfo_hw_n_bike.0" vType="motorbike" speedFactor="1.06" vaporized=""/>
    <tripinfo id="s10_in_rick.1" depart="45.00" departLane="-1170388412#0_0" departPos="2.90" departSpeed="0.00" departDelay="0.00" arrival="225.30" arrivalLane="151829692#1_0" arrivalPos="49.23" arrivalSpeed="11.04" duration="180.30" routeLength="1007.59" waitingTime="56.20" waitingCount="4" stopTime="0.00" timeLoss="88.61" rerouteNo="0" devices="tripinfo_s10_in_rick.1" vType="rickshaw" speedFactor="1.06" vaporized=""/>
    <tripinfo id="ns_truck.0" depart="12.50" departLane="1465267571#5_0" departPos="8.10" departSpeed="0.00" departDelay="12.50" arrival="226.00" arrivalLane="183255900#1_1" arrivalPos="24.62" arrivalSpeed="13.86" duration="213.50" routeLength="1492.72" waitingTime="54.10" waitingCount="2" stopTime="0.00" timeLoss="105.46" rerouteNo="0" devices="tripinfo_ns_truck.0" vType="truck" speedFactor="0.93" vaporized=""/>
    <tripinfo id="s10_in_rick.2" depart="92.00" departLane="-1170388412#0_0" departPos="2.90" departSpeed="0.00" departDelay="2.00" arrival="226.70" arrivalLane="151829692#1_0" arrivalPos="49.23" arrivalSpeed="11.07" duration="134.70" routeLength="1007.59" waitingTime="22.30" waitingCount="1" stopTime="0.00" timeLoss="43.21" rerouteNo="0" devices="tripinfo_s10_in_rick.2" vType="rickshaw" speedFactor="1.12" vaporized=""/>
    <tripinfo id="ns_rickshaw.0" depart="8.50" departLane="1465267571#5_0" departPos="2.90" departSpeed="0.00" departDelay="8.50" arrival="227.60" arrivalLane="183255900#1_0" arrivalPos="24.62" arrivalSpeed="11.08" duration="219.10" routeLength="1497.92" waitingTime="64.20" waitingCount="2" stopTime="0.00" timeLoss="84.11" rerouteNo="0" devices="tripinfo_ns_rickshaw.0" vType="rickshaw" speedFactor="0.94" vaporized=""/>
    <tripinfo id="s8_in_car.1" depart="30.00" departLane="-553958820#10.154_0" departPos="4.60" departSpeed="0.00" departDelay="0.00" arrival="228.00" arrivalLane="151829692#1_0" arrivalPos="49.23" arrivalSpeed="13.40" duration="198.00" routeLength="1189.81" waitingTime="65.40" waitingCount="4" stopTime="0.00" timeLoss="125.76" rerouteNo="0" devices="tripinfo_s8_in_car.1" vType="car" speedFactor="1.00" vaporized=""/>
    <tripinfo id="sn_bike.9" depart="75.80" departLane="1189082075#5.102_0" departPos="2.10" departSpeed="0.00" departDelay="3.80" arrival="229.30" arrivalLane="151829692#1_0" arrivalPos="49.23" arrivalSpeed="15.81" duration="153.50" routeLength="1479.35" waitingTime="18.30" waitingCount="2" stopTime="0.00" timeLoss="78.73" rerouteNo="0" devices="tripinfo_sn_bike.9" vType="motorbike" speedFactor="1.00" vaporized=""/>
    <tripinfo id="sn_rickshaw.2" depart="45.30" departLane="1189082075#5.102_0" departPos="2.90" departSpeed="0.00" departDelay="5.30" arrival="229.40" arrivalLane="151829692#1_1" arrivalPos="49.23" arrivalSpeed="11.06" duration="184.10" routeLength="1482.17" waitingTime="13.60" waitingCount="1" stopTime="0.00" timeLoss="50.51" rerouteNo="0" devices="tripinfo_sn_rickshaw.2" vType="rickshaw" speedFactor="1.04" vaporized=""/>
    <tripinfo id="sn_car.10" depart="76.70" departLane="1189082075#5.102_0" departPos="4.60" departSpeed="0.00" departDelay="4.70" arrival="230.70" arrivalLane="151829692#1_1" arrivalPos="49.23" arrivalSpeed="13.71" duration="154.00" routeLength="1480.47" waitingTime="6.00" waitingCount="2" stopTime="0.00" timeLoss="64.71" rerouteNo="0" devices="tripinfo_sn_car.10" vType="car" speedFactor="0.99" vaporized=""/>
    <tripinfo id="ns_rickshaw.1" depart="26.30" departLane="1465267571#5_0" departPos="2.90" departSpeed="0.00" departDelay="6.30" arrival="231.30" arrivalLane="183255900#1_0" arrivalPos="24.62" arrivalSpeed="11.01" duration="205.00" routeLength="1497.92" waitingTime="38.70" waitingCount="2" stopTime="0.00" timeLoss="69.99" rerouteNo="0" devices="tripinfo_ns_rickshaw.1" vType="rickshaw" speedFactor="0.90" vaporized=""/>
    <tripinfo id="sn_truck.0" depart="15.30" departLane="1189082075#5.102_0" departPos="8.10" departSpeed="0.00" departDelay="15.30" arrival="231.40" arrivalLane="151829692#1_0" arrivalPos="49.23" arrivalSpeed="13.88" duration="216.10" routeLength="1473.23" waitingTime="24.90" waitingCount="1" stopTime="0.00" timeLoss="109.47" rerouteNo="0" devices="tripinfo_sn_truck.0" vType="truck" speedFactor="0.91" vaporized=""/>