<?xml version="1.0" encoding="UTF-8"?>

<!-- generated on 2026-07-09T00:02:14.345801+05:30 by Eclipse SUMO sumo 1.26.0
<sumoConfiguration xmlns:xsi="http://www.w3.org/2001/XMLSchema-instance" xsi:noNamespaceSchemaLocation="http://sumo.dlr.de/xsd/sumoConfiguration.xsd">

    <input>
        <net-file value="C:\DEV\ATLAS\sumo_map\adaptive\../network/smart5_main.net.xml"/>
        <route-files value="C:\DEV\ATLAS\sumo_map\adaptive\../network/smart5.rou.xml"/>
        <additional-files value="C:\DEV\ATLAS\sumo_map\adaptive\../network/smart5.poly.xml"/>
    </input>

    <output>
        <summary-output value="C:\DEV\ATLAS\sumo_map\adaptive\results/summary_smart.xml"/>
        <tripinfo-output value="C:\DEV\ATLAS\sumo_map\adaptive\results/tripinfo_smart.xml"/>
    </output>

    <time>
        <begin value="0"/>
        <end value="400"/>
        <step-length value="1"/>
    </time>

    <traci_server>
        <remote-port value="45243"/>
    </traci_server>

    <random_number>
        <seed value="42"/>
    </random_number>

</sumoConfiguration>
-->

<tripinfos xmlns:xsi="http://www.w3.org/2001/XMLSchema-instance" xsi:noNamespaceSchemaLocation="http://sumo.dlr.de/xsd/tripinfo_file.xsd">
    <tripinfo id="s8_out_bike.0" depart="2.00" departLane="1189082075#5.102_0" departPos="2.10" departSpeed="0.00" departDelay="2.00" arrival="79.00" arrivalLane="553958820#10_0" arrivalPos="61.27" arrivalSpeed="19.50" duration="77.00" routeLength="1255.51" waitingTime="0.00" waitingCount="0" stopTime="0.00" timeLoss="13.02" rerouteNo="0" devices="tripinfo_s8_out_bike.0" vType="motorbike" speedFactor="1.00" vaporized=""/>
    <tripinfo id="s10_out_car.0" depart="0.00" departLane="1189082075#5.102_0" departPos="4.60" departSpeed="0.00" departDelay="0.00" arrival="88.00" arrivalLane="1170388412#0_0" arrivalPos="277.72" arrivalSpeed="12.19" duration="88.00" routeLength="1186.21" waitingTime="0.00" waitingCount="0" stopTime="0.00" timeLoss="9.35" rerouteNo="0" devices="tripinfo_s10_out_car.0" vType="car" speedFactor="0.94" vaporized=""/>
    <tripinfo id="sn_bike.0" depart="6.00" departLane="1189082075#5.102_0" departPos="2.10" departSpeed="0.00" departDelay="6.00" arrival="117.00" arrivalLane="151829692#1_0" arrivalPos="49.23" arrivalSpeed="18.87" duration="111.00" routeLength="1479.35" waitingTime="18.00" waitingCount="1" stopTime="0.00" timeLoss="35.59" rerouteNo="0" devices="tripinfo_sn_bike.0" vType="motorbike" speedFactor="0.87" vaporized=""/>
    <tripinfo id="sn_bike.1" depart="27.00" departLane="1189082075#5.102_0" departPos="2.10" departSpeed="0.00" departDelay="19.00" arrival="119.00" arrivalLane="151829692#1_0" arrivalPos="49.23" arrivalSpeed="19.63" duration="92.00" routeLength="1479.35" waitingTime="1.00" waitingCount="1" stopTime="0.00" timeLoss="16.68" rerouteNo="0" devices="tripinfo_sn_bike.1" vType="motorbike" speedFactor="1.00" vaporized=""/>
    <tripinfo id="sn_bike.2" depart="31.00" departLane="1189082075#5.102_0" departPos="2.10" departSpeed="0.00" departDelay="15.00" arrival="121.00" arrivalLane="151829692#1_0" arrivalPos="49.23" arrivalSpeed="17.86" duration="90.00" routeLength="1479.35" waitingTime="0.00" waitingCount="0" stopTime="0.00" timeLoss="15.11" rerouteNo="0" devices="tripinfo_sn_bike.2" vType="motorbike" speedFactor="1.15" vaporized=""/>
    <tripinfo id="s8_out_bike.1" depart="42.00" departLane="1189082075#5.102_0" departPos="2.10" departSpeed="0.00" departDelay="18.00" arrival="127.00" arrivalLane="553958820#10_0" arrivalPos="61.27" arrivalSpeed="19.29" duration="85.00" routeLength="1255.51" waitingTime="0.00" waitingCount="0" stopTime="0.00" timeLoss="20.86" rerouteNo="0" devices="tripinfo_s8_out_bike.1" vType="motorbike" speedFactor="1.03" vaporized=""/>
    <tripinfo id="s10_in_rick.0" depart="5.00" departLane="-1170388412#0_0" departPos="2.90" departSpeed="0.00" departDelay="5.00" arrival="132.00" arrivalLane="151829692#1_0" arrivalPos="49.23" arrivalSpeed="11.08" duration="127.00" routeLength="1007.59" waitingTime="14.00" waitingCount="1" stopTime="0.00" timeLoss="33.39" rerouteNo="0" devices="tripinfo_s10_in_rick.0" vType="rickshaw" speedFactor="0.82" vaporized=""/>
    <tripinfo id="sn_car.0" depart="14.00" departLane="1189082075#5.102_0" departPos="4.60" departSpeed="0.00" departDelay="14.00" arrival="133.00" arrivalLane="151829692#1_0" arrivalPos="49.23" arrivalSpeed="13.04" duration="119.00" routeLength="1476.73" waitingTime="1.00" waitingCount="1" stopTime="0.00" timeLoss="29.85" rerouteNo="0" devices="tripinfo_sn_car.0" vType="car" speedFactor="1.05" vaporized=""/>
    <tripinfo id="sn_bus.0" depart="10.00" departLane="1189082075#5.102_0" departPos="10.60" departSpeed="0.00" departDelay="10.00" arrival="135.00" arrivalLane="151829692#1_0" arrivalPos="49.23" arrivalSpeed="12.04" duration="125.00" routeLength="1470.73" waitingTime="0.00" waitingCount="0" stopTime="0.00" timeLoss="18.59" rerouteNo="0" devices="tripinfo_sn_bus.0" vType="bus" speedFactor="1.00" vaporized=""/>
    <tripinfo id="sn_car.1" depart="25.00" departLane="1189082075#5.102_0" departPos="4.60" departSpeed="0.00" departDelay="17.80" arrival="137.00" arrivalLane="151829692#1_0" arrivalPos="49.23" arrivalSpeed="14.11" duration="112.00" routeLength="1476.73" waitingTime="0.00" waitingCount="0" stopTime="0.00" timeLoss="23.10" rerouteNo="0" devices="tripinfo_sn_car.1" vType="car" speedFactor="0.94" vaporized=""/>
    <tripinfo id="sn_car.2" depart="29.00" departLane="1189082075#5.102_0" departPos="4.60" departSpeed="0.00" departDelay="14.60" arrival="139.00" arrivalLane="151829692#1_0" arrivalPos="49.23" arrivalSpeed="15.97" duration="110.00" routeLength="1476.73" waitingTime="0.00" waitingCount="0" stopTime="0.00" timeLoss="20.23" rerouteNo="0" devices="tripinfo_sn_car.2" vType="car" speedFactor="0.82" vaporized=""/>
    <tripinfo id="sn_bike.3" depart="44.00" departLane="1189082075#5.102_0" departPos="2.10" departSpeed="0.00" departDelay="20.00" arrival="141.00" arrivalLane="151829692#1_0" arrivalPos="49.23" arrivalSpeed="18.03" duration="97.00" routeLength="1479.35" waitingTime="0.00" waitingCount="0" stopTime="0.00" timeLoss="21.41" rerouteNo="0" devices="tripinfo_sn_bike.3" vType="motorbike" speedFactor="0.92" vaporized=""/>
    <tripinfo id="sn_car.3" depart="39.00" departLane="1189082075#5.102_0" departPos="4.60" departSpeed="0.00" departDelay="17.40" arrival="142.00" arrivalLane="151829692#1_0" arrivalPos="49.23" arrivalSpeed="16.35" duration="103.00" routeLength="1476.85" waitingTime="0.00" waitingCount="0" stopTime="0.00" timeLoss="13.34" rerouteNo="0" devices="tripinfo_sn_car.3" vType="car" speedFactor="0.94" vaporized=""/>
    <tripinfo id="sn_bike.4" depart="51.00" departLane="1189082075#5.102_0" departPos="2.10" departSpeed="0.00" departDelay="19.00" arrival="144.00" arrivalLane="151829692#1_0" arrivalPos="49.23" arrivalSpeed="17.66" duration="93.00" routeLength="1479.35" waitingTime="0.00" waitingCount="0" stopTime="0.00" timeLoss="17.72" rerouteNo="0" devices="tripinfo_sn_bike.4" vType="motorbike" speedFactor="1.21" vaporized=""/>
    <tripinfo id="sn_truck.0" depart="21.00" departLane="1189082075#5.102_0" departPos="8.10" departSpeed="0.00" departDelay="21.00" arrival="147.00" arrivalLane="151829692#1_0" arrivalPos="49.23" arrivalSpeed="13.90" duration="126.00" routeLength="1473.23" waitingTime="0.00" waitingCount="0" stopTime="0.00" timeLoss="18.94" rerouteNo="0" devices="tripinfo_sn_truck.0" vType="truck" speedFactor="0.98" vaporized=""/>
    <tripinfo id="sn_car.4" depart="46.00" departLane="1189082075#5.102_0" departPos="4.60" departSpeed="0.00" departDelay="17.20" arrival="149.00" arrivalLane="151829692#1_0" arrivalPos="49.23" arrivalSpeed="15.58" duration="103.00" routeLength="1476.73" waitingTime="0.00" waitingCount="0" stopTime="0.00" timeLoss="12.81" rerouteNo="0" devices="tripinfo_sn_car.4" vType="car" speedFactor="0.91" vaporized=""/>
    <tripinfo id="sn_bike.5" depart="59.00" departLane="1189082075#5.102_0" departPos="2.10" departSpeed="0.00" departDelay="19.00" arrival="150.00" arrivalLane="151829692#1_0" arrivalPos="49.23" arrivalSpeed="16.81" duration="91.00" routeLength="1479.35" waitingTime="0.00" waitingCount="0" stopTime="0.00" timeLoss="15.94" rerouteNo="0" devices="tripinfo_sn_bike.5" vType="motorbike" speedFactor="1.05" vaporized=""/>
    <tripinfo id="s8_out_bike.2" depart="67.00" departLane="1189082075#5.102_0" departPos="2.10" departSpeed="0.00" departDelay="19.00" arrival="154.00" arrivalLane="553958820#10_0" arrivalPos="61.27" arrivalSpeed="17.05" duration="87.00" routeLength="1255.51" waitingTime="0.00" waitingCount="0" stopTime="0.00" timeLoss="21.77" rerouteNo="0" devices="tripinfo_s8_out_bike.2" vType="motorbike" speedFactor="0.86" vaporized=""/>
    <tripinfo id="s10_out_car.1" depart="49.00" departLane="1189082075#5.102_0" departPos="4.60" departSpeed="0.00" departDelay="19.00" arrival="159.00" arrivalLane="1170388412#0_0" arrivalPos="277.72" arrivalSpeed="14.84" duration="110.00" routeLength="1186.21" waitingTime="8.00" waitingCount="1" stopTime="0.00" timeLoss="35.98" rerouteNo="0" devices="tripinfo_s10_out_car.1" vType="car" speedFactor="1.10" vaporized=""/>
    <tripinfo id="sn_rickshaw.0" depart="16.00" departLane="1189082075#5.102_0" departPos="2.90" departSpeed="0.00" departDelay="16.00" arrival="161.00" arrivalLane="151829692#1_0" arrivalPos="49.23" arrivalSpeed="10.09" duration="145.00" routeLength="1478.43" waitingTime="0.00" waitingCount="0" stopTime="0.00" timeLoss="11.63" rerouteNo="0" devices="tripinfo_sn_rickshaw.0" vType="rickshaw" speedFactor="1.12" vaporized=""/>
    <tripinfo id="hw_s_bike.0" depart="7.00" departLane="177566553#6_0" departPos="2.10" departSpeed="0.00" departDelay="7.00" arrival="173.00" arrivalLane="183255900#1_0" arrivalPos="24.62" arrivalSpeed="19.91" duration="166.00" routeLength="2245.57" waitingTime="0.00" waitingCount="0" stopTime="0.00" timeLoss="21.20" rerouteNo="0" devices="tripinfo_hw_s_bike.0" vType="motorbike" speedFactor="1.16" vaporized=""/>
    <tripinfo id="s8_out_bike.3" depart="92.00" departLane="1189082075#5.102_0" departPos="2.10" departSpeed="0.00" departDelay="20.00" arrival="173.00" arrivalLane="553958820#10_0" arrivalPos="61.27" arrivalSpeed="17.52" duration="81.00" routeLength="1255.51" waitingTime="0.00" waitingCount="0" stopTime="0.00" timeLoss="16.72" rerouteNo="0" devices="tripinfo_s8_out_bike.3" vType="motorbike" speedFactor="0.88" vaporized=""/>
    <tripinfo id="s10_out_car.2" depart="82.00" departLane="1189082075#5.102_0" departPos="4.60" departSpeed="0.00" departDelay="22.00" arrival="174.00" arrivalLane="1170388412#0_0" arrivalPos="277.72" arrivalSpeed="14.14" duration="92.00" routeLength="1186.21" waitingTime="0.00" waitingCount="0" stopTime="0.00" timeLoss="17.37" rerouteNo="0" devices="tripinfo_s10_out_car.2" vType="car" speedFactor="1.11" vaporized=""/>
    <tripinfo id="hw_bus.0" depart="0.00" departLane="177566553#6_0" departPos="10.60" departSpeed="0.00" departDelay="0.00" arrival="197.00" arrivalLane="183255900#1_0" arrivalPos="24.62" arrivalSpeed="13.69" duration="197.00" routeLength="2237.07" waitingTime="0.00" waitingCount="0" stopTime="0.00" timeLoss="15.46" rerouteNo="0" devices="tripinfo_hw_bus.0" vType="bus" speedFactor="1.00" vaporized=""/>
    <tripinfo id="hw_s_bike.1" depart="25.00" departLane="177566553#6_0" departPos="2.10" departSpeed="0.00" departDelay="7.00" arrival="201.00" arrivalLane="183255900#1_0" arrivalPos="24.62" arrivalSpeed="19.03" duration="176.00" routeLength="2245.57" waitingTime="0.00" waitingCount="0" stopTime="0.00" timeLoss="22.27" rerouteNo="0" devices="tripinfo_hw_s_bike.1" vType="motorbike" speedFactor="1.06" vaporized=""/>
    <tripinfo id="sn_bike.6" depart="68.00" departLane="1189082075#5.102_0" departPos="2.10" departSpeed="0.00" departDelay="20.00" arrival="206.00" arrivalLane="151829692#1_0" arrivalPos="49.23" arrivalSpeed="19.56" duration="138.00" routeLength="1479.35" waitingTime="46.00" waitingCount="2" stopTime="0.00" timeLoss="62.94" rerouteNo="0" devices="tripinfo_sn_bike.6" vType="motorbike" speedFactor="0.77" vaporized=""/>
    <tripinfo id="s8_out_bike.4" depart="128.00" departLane="1189082075#5.102_0" departPos="2.10" departSpeed="0.00" departDelay="32.00" arrival="208.00" arrivalLane="553958820#10_0" arrivalPos="61.27" arrivalSpeed="19.25" duration="80.00" routeLength="1255.51" waitingTime="0.00" waitingCount="0" stopTime="0.00" timeLoss="16.14" rerouteNo="0" devices="tripinfo_s8_out_bike.4" vType="motorbike" speedFactor="0.90" vaporized=""/>
    <tripinfo id="sn_car.5" depart="57.00" departLane="1189082075#5.102_0" departPos="4.60" departSpeed="0.00" departDelay="21.00" arrival="209.00" arrivalLane="151829692#1_0" arrivalPos="49.23" arrivalSpeed="16.01" duration="152.00" routeLength="1476.85" waitingTime="47.00" waitingCount="1" stopTime="0.00" timeLoss="62.59" rerouteNo="0" devices="tripinfo_sn_car.5" vType="car" speedFactor="1.08" vaporized=""/>
    <tripinfo id="sn_car.6" depart="65.00" departLane="1189082075#5.102_0" departPos="4.60" departSpeed="0.00" departDelay="21.80" arrival="211.00" arrivalLane="151829692#1_0" arrivalPos="49.23" arrivalSpeed="15.61" duration="146.00" routeLength="1476.85" waitingTime="40.00" waitingCount="2" stopTime="0.00" timeLoss="56.74" rerouteNo="0" devices="tripinfo_sn_car.6" vType="car" speedFactor="1.02" vaporized=""/>
    <tripinfo id="sn_bike.7" depart="76.00" departLane="1189082075#5.102_0" departPos="2.10" departSpeed="0.00" departDelay="20.00" arrival="212.00" arrivalLane="151829692#1_0" arrivalPos="49.23" arrivalSpeed="19.48" duration="136.00" routeLength="1479.35" waitingTime="38.00" waitingCount="2" stopTime="0.00" timeLoss="61.64" rerouteNo="0" devices="tripinfo_sn_bike.7" vType="motorbike" speedFactor="1.06" vaporized=""/>
    <tripinfo id="hw_s_car.0" depart="9.00" departLane="177566553#6_0" departPos="4.60" departSpeed="0.00" departDelay="9.00" arrival="213.00" arrivalLane="183255900#1_0" arrivalPos="24.62" arrivalSpeed="16.46" duration="204.00" routeLength="2243.07" waitingTime="1.00" waitingCount="1" stopTime="0.00" timeLoss="19.81" rerouteNo="0" devices="tripinfo_hw_s_car.0" vType="car" speedFactor="0.88" vaporized=""/>
    <tripinfo id="hw_s_car.1" depart="21.00" departLane="177566553#6_0" departPos="4.60" departSpeed="0.00" departDelay="6.60" arrival="214.00" arrivalLane="183255900#1_0" arrivalPos="24.62" arrivalSpeed="16.32" duration="193.00" routeLength="2243.07" waitingTime="0.00" waitingCount="0" stopTime="0.00" timeLoss="17.05" rerouteNo="0" devices="tripinfo_hw_s_car.1" vType="car" speedFactor="0.94" vaporized=""/>
    <tripinfo id="s10_in_rick.1" depart="45.00" departLane="-1170388412#0_0" departPos="2.90" departSpeed="0.00" departDelay="0.00" arrival="222.00" arrivalLane="151829692#1_0" arrivalPos="49.23" arrivalSpeed="10.63" duration="177.00" routeLength="1007.59" waitingTime="58.00" waitingCount="3" stopTime="0.00" timeLoss="84.25" rerouteNo="0" devices="tripinfo_s10_in_rick.1" vType="rickshaw" speedFactor="0.98" vaporized=""/>
    <tripinfo id="sn_car.8" depart="79.00" departLane="1189082075#5.102_0" departPos="4.60" departSpeed="0.00" departDelay="21.40" arrival="223.00" arrivalLane="151829692#1_0" arrivalPos="49.23" arrivalSpeed="12.99" duration="144.00" routeLength="1476.85" waitingTime="29.00" waitingCount="1" stopTime="0.00" timeLoss="54.92" rerouteNo="0" devices="tripinfo_sn_car.8" vType="car" speedFactor="1.08" vaporized=""/>
    <tripinfo id="sn_rickshaw.1" depart="36.00" departLane="1189082075#5.102_0" departPos="2.90" departSpeed="0.00" departDelay="16.00" arrival="226.00" arrivalLane="151829692#1_0" arrivalPos="49.23" arrivalSpeed="10.22" duration="190.00" routeLength="1478.43" waitingTime="38.00" waitingCount="1" stopTime="0.00" timeLoss="55.53" rerouteNo="0" devices="tripinfo_sn_rickshaw.1" vType="rickshaw" speedFactor="0.86" vaporized=""/>
    <tripinfo id="sn_car.9" depart="90.00" departLane="1189082075#5.102_0" departPos="4.60" departSpeed="0.00" departDelay="25.20" arrival="227.00" arrivalLane="151829692#1_0" arrivalPos="49.23" arrivalSpeed="12.98" duration="137.00" routeLength="1476.85" waitingTime="19.00" waitingCount="1" stopTime="0.00" timeLoss="47.44" rerouteNo="0" devices="tripinfo_sn_car.9" vType="car" speedFactor="0.93" vaporized=""/>
    <tripinfo id="sn_car.10" depart="100.00" departLane="1189082075#5.102_0" departPos="4.60" departSpeed="0.00" departDelay="28.00" arrival="229.00" arrivalLane="151829692#1_0" arrivalPos="49.23" arrivalSpeed="14.86" duration="129.00" routeLength="1476.73" waitingTime="13.00" waitingCount="1" stopTime="0.00" timeLoss="38.93" rerouteNo="0" devices="tripinfo_sn_car.10" vType="car" speedFactor="0.85" vaporized=""/>
    <tripinfo id="sn_car.11" depart="107.00" departLane="1189082075#5.102_0" departPos="4.60" departSpeed="0.00" departDelay="27.80" arrival="230.00" arrivalLane="151829692#1_0" arrivalPos="49.23" arrivalSpeed="14.66" duration="123.00" routeLength="1476.85" waitingTime="2.00" waitingCount="1" stopTime="0.00" timeLoss="33.67" rerouteNo="0" devices="tripinfo_sn_car.11" vType="car" speedFactor="0.92" vaporized=""/>
    <tripinfo id="sn_car.12" depart="115.00" departLane="1189082075#5.102_0" departPos="4.60" departSpeed="0.00" departDelay="28.60" arrival="232.00" arrivalLane="151829692#1_0" arrivalPos="49.23" arrivalSpeed="15.81" duration="117.00" routeLength="1476.85" waitingTime="0.00" waitingCount="0" stopTime="0.00" timeLoss="27.51" rerouteNo="0" devices="tripinfo_sn_car.12" vType="car" speedFactor="1.09" vaporized=""/>
    <tripinfo id="s8_out_bike.5" depart="153.00" departLane="1189082075#5.102_0" departPos="2.10" departSpeed="0.00" departDelay="33.00" arrival="232.00" arrivalLane="553958820#10_0" arrivalPos="61.27" arrivalSpeed="17.93" duration="79.00" routeLength="1255.51" waitingTime="0.00" waitingCount="0" stopTime="0.00" timeLoss="13.27" rerouteNo="0" devices="tripinfo_s8_out_bike.5" vType="motorbike" speedFactor="0.83" vaporized=""/>
    <tripinfo id="sn_bike.12" depart="130.00" departLane="1189082075#5.102_0" departPos="2.10" departSpeed="0.00" departDelay="34.00" arrival="233.00" arrivalLane="151829692#1_0" arrivalPos="49.23" arrivalSpeed="15.89" duration="103.00" routeLength="1479.35" waitingTime="0.00" waitingCount="0" stopTime="0.00" timeLoss="28.30" rerouteNo="0" devices="tripinfo_sn_bike.12" vType="motorbike" speedFactor="1.05" vaporized=""/>
    <tripinfo id="s_hw_car.0" depart="4.00" departLane="1189082075#5.102_0" departPos="4.60" departSpeed="0.00" departDelay="4.00" arrival="235.00" arrivalLane="1265532934#1_0" arrivalPos="99.94" arrivalSpeed="15.48" duration="231.00" routeLength="2297.34" waitingTime="48.00" waitingCount="1" stopTime="0.00" timeLoss="67.40" rerouteNo="0" devices="tripinfo_s_hw_car.0" vType="car" speedFactor="1.10" vaporized=""/>
    <tripinfo id="s_hw_car.1" depart="34.00" departLane="1189082075#5.102_0" departPos="4.60" departSpeed="0.00" departDelay="16.00" arrival="235.00" arrivalLane="1265532934#1_1" arrivalPos="99.94" arrivalSpeed="15.86" duration="201.00" routeLength="2297.34" waitingTime="15.00" waitingCount="1" stopTime="0.00" timeLoss="34.44" rerouteNo="0" devices="tripinfo_s_hw_car.1" vType="car" speedFactor="1.06" vaporized=""/>
    <tripinfo id="sn_bike.8" depart="87.00" departLane="1189082075#5.102_0" departPos="2.10" departSpeed="0.00" departDelay="23.00" arrival="235.00" arrivalLane="151829692#1_0" arrivalPos="49.23" arrivalSpeed="19.98" duration="148.00" routeLength="1479.35" waitingTime="29.00" waitingCount="1" stopTime="0.00" timeLoss="72.52" rerouteNo="0" devices="tripinfo_sn_bike.8" vType="motorbike" speedFactor="0.94" vaporized=""/>
    <tripinfo id="s_hw_car.2" depart="54.00" departLane="1189082075#5.102_0" departPos="4.60" departSpeed="0.00" departDelay="18.00" arrival="236.00" arrivalLane="1265532934#1_0" arrivalPos="99.94" arrivalSpeed="15.68" duration="182.00" routeLength="2297.34" waitingTime="1.00" waitingCount="1" stopTime="0.00" timeLoss="23.94" rerouteNo="0" devices="tripinfo_s_hw_car.2" vType="car" speedFactor="1.16" vaporized=""/>
    <tripinfo id="sn_car.13" depart="125.00" departLane="1189082075#5.102_0" departPos="4.60" departSpeed="0.00" departDelay="31.40" arrival="237.00" arrivalLane="151829692#1_0" arrivalPos="49.23" arrivalSpeed="16.41" duration="112.00" routeLength="1476.85" waitingTime="0.00" waitingCount="0" stopTime="0.00" timeLoss="22.43" rerouteNo="0" devices="tripinfo_sn_car.13" vType="car" speedFactor="1.28" vaporized=""/>
    <tripinfo id="sn_bike.14" depart="146.00" departLane="1189082075#5.102_0" departPos="2.10" departSpeed="0.00" departDelay="34.00" arrival="238.00" arrivalLane="151829692#1_0" arrivalPos="49.23" arrivalSpeed="18.91" duration="92.00" routeLength="1479.35" waitingTime="0.00" waitingCount="0" stopTime="0.00" timeLoss="17.22" rerouteNo="0" devices="tripinfo_sn_bike.14" vType="motorbike" speedFactor="1.11" vaporized=""/>
    <tripinfo id="sn_bike.13" depart="138.00" departLane="1189082075#5.102_0" departPos="2.10" departSpeed="0.00" departDelay="34.00" arrival="240.00" arrivalLane="151829692#1_0" arrivalPos="49.23" arrivalSpeed="18.14" duration="102.00" routeLength="1479.35" waitingTime="0.00" waitingCount="0" stopTime="0.00" timeLoss="26.96" rerouteNo="0" devices="tripinfo_sn_bike.13" vType="motorbike" speedFactor="1.29" vaporized=""/>
    <tripinfo id="sn_car.7" depart="71.00" departLane="1189082075#5.102_0" departPos="4.60" departSpeed="0.00" departDelay="20.60" arrival="241.00" arrivalLane="151829692#1_0" arrivalPos="49.23" arrivalSpeed="16.20" duration="170.00" routeLength="1476.73" waitingTime="37.00" waitingCount="1" stopTime="0.00" timeLoss="81.15" rerouteNo="0" devices="tripinfo_sn_car.7" vType="car" speedFactor="0.93" vaporized=""/>
    <tripinfo id="sn_bike.9" depart="97.00" departLane="1189082075#5.102_0" departPos="2.10" departSpeed="0.00" departDelay="25.00" arrival="243.00" arrivalLane="151829692#1_0" arrivalPos="49.23" arrivalSpeed="18.39" duration="146.00" routeLength="1479.35" waitingTime="22.00" waitingCount="1" stopTime="0.00" timeLoss="71.20" rerouteNo="0" devices="tripinfo_sn_bike.9" vType="motorbike" speedFactor="1.03" vaporized=""/>
    <tripinfo id="s10_in_rick.2" depart="92.00" departLane="-1170388412#0_0" departPos="2.90" departSpeed="0.00" departDelay="2.00" arrival="249.00" arrivalLane="151829692#1_0" arrivalPos="49.23" arrivalSpeed="11.00" duration="157.00" routeLength="1007.59" waitingTime="22.00" waitingCount="3" stopTime="0.00" timeLoss="64.41" rerouteNo="0" devices="tripinfo_s10_in_rick.2" vType="rickshaw" speedFactor="0.92" vaporized=""/>
    <tripinfo id="sn_rickshaw.2" depart="61.00" departLane="1189082075#5.102_0" departPos="2.90" departSpeed="0.00" departDelay="21.00" arrival="251.00" arrivalLane="151829692#1_0" arrivalPos="49.23" arrivalSpeed="10.42" duration="190.00" routeLength="1478.43" waitingTime="15.00" waitingCount="1" stopTime="0.00" timeLoss="56.23" rerouteNo="0" devices="tripinfo_sn_rickshaw.2" vType="rickshaw" speedFactor="1.09" vaporized=""/>
    <tripinfo id="sn_bike.10" depart="109.00" departLane="1189082075#5.102_0" departPos="2.10" departSpeed="0.00" departDelay="29.00" arrival="253.00" arrivalLane="151829692#1_0" arrivalPos="49.23" arrivalSpeed="15.66" duration="144.00" routeLength="1479.35" waitingTime="4.00" waitingCount="2" stopTime="0.00" timeLoss="68.59" rerouteNo="0" devices="tripinfo_sn_bike.10" vType="motorbike" speedFactor="1.17" vaporized=""/>
    <tripinfo id="sn_bike.11" depart="117.00" departLane="1189082075#5.102_0" departPos="2.10" departSpeed="0.00" departDelay="29.00" arrival="254.00" arrivalLane="151829692#1_0" arrivalPos="49.23" arrivalSpeed="13.29" duration="137.00" routeLength="1479.35" waitingTime="0.00" waitingCount="0" stopTime="0.00" timeLoss="62.37" rerouteNo="0" devices="tripinfo_sn_bike.11" vType="motorbike" speedFactor="1.01" vaporized=""/>
    <tripinfo id="s10_out_car.3" depart="120.00" departLane="1189082075#5.102_0" departPos="4.60" departSpeed="0.00" departDelay="30.00" arrival="254.00" arrivalLane="1170388412#0_0" arrivalPos="277.72" arrivalSpeed="12.66" duration="134.00" routeLength="1186.21" waitingTime="40.00" waitingCount="1" stopTime="0.00" timeLoss="54.65" rerouteNo="0" devices="tripinfo_s10_out_car.3" vType="car" speedFactor="0.92" vaporized=""/>
    <tripinfo id="s10_out_car.4" depart="151.00" departLane="1189082075#5.102_0" departPos="4.60" departSpeed="0.00" departDelay="31.00" arrival="256.00" arrivalLane="1170388412#0_0" arrivalPos="277.72" arrivalSpeed="13.16" duration="105.00" routeLength="1186.21" waitingTime="2.00" waitingCount="1" stopTime="0.00" timeLoss="27.17" rerouteNo="0" devices="tripinfo_s10_out_car.4" vType="car" speedFactor="1.00" vaporized=""/>
    <tripinfo id="sn_rickshaw.3" depart="84.00" departLane="1189082075#5.102_0" departPos="2.90" departSpeed="0.00" departDelay="24.00" arrival="257.00" arrivalLane="151829692#1_0" arrivalPos="49.23" arrivalSpeed="10.19" duration="173.00" routeLength="1478.43" waitingTime="0.00" waitingCount="0" stopTime="0.00" timeLoss="38.92" rerouteNo="0" devices="tripinfo_sn_rickshaw.3" vType="rickshaw" speedFactor="0.74" vaporized=""/>
    <tripinfo id="s_hw_car.3" depart="74.00" departLane="1189082075#5.102_0" departPos="4.60" departSpeed="0.00" departDelay="20.00" arrival="259.00" arrivalLane="1265532934#1_0" arrivalPos="99.94" arrivalSpeed="15.83" duration="185.00" routeLength="2297.34" waitingTime="0.00" waitingCount="0" stopTime="0.00" timeLoss="15.67" rerouteNo="0" devices="tripinfo_s_hw_car.3" vType="car" speedFactor="1.03" vaporized=""/>
    <tripinfo id="sn_truck.1" depart="103.00" departLane="1189082075#5.102_0" departPos="8.10" departSpeed="0.00" departDelay="31.00" arrival="259.00" arrivalLane="151829692#1_0" arrivalPos="49.23" arrivalSpeed="12.60" duration="156.00" routeLength="1473.23" waitingTime="2.00" waitingCount="1" stopTime="0.00" timeLoss="49.27" rerouteNo="0" devices="tripinfo_sn_truck.1" vType="truck" speedFactor="1.01" vaporized=""/>
    <tripinfo id="s8_out_bike.6" depart="181.00" departLane="1189082075#5.102_0" departPos="2.10" departSpeed="0.00" departDelay="37.00" arrival="259.00" arrivalLane="553958820#10_0" arrivalPos="61.27" arrivalSpeed="19.63" duration="78.00" routeLength="1255.51" waitingTime="0.00" waitingCount="0" stopTime="0.00" timeLoss="14.22" rerouteNo="0" devices="tripinfo_s8_out_bike.6" vType="motorbike" speedFactor="0.91" vaporized=""/>
    <tripinfo id="sn_car.14" depart="136.00" departLane="1189082075#5.102_0" departPos="4.60" departSpeed="0.00" departDelay="35.20" arrival="261.00" arrivalLane="151829692#1_0" arrivalPos="49.23" arrivalSpeed="15.62" duration="125.00" routeLength="1476.85" waitingTime="2.00" waitingCount="1" stopTime="0.00" timeLoss="35.61" rerouteNo="0" devices="tripinfo_sn_car.14" vType="car" speedFactor="1.18" vaporized=""/>
    <tripinfo id="sn_bike.15" depart="155.00" departLane="1189082075#5.102_0" departPos="2.10" departSpeed="0.00" departDelay="35.00" arrival="262.00" arrivalLane="151829692#1_0" arrivalPos="49.23" arrivalSpeed="16.20" duration="107.00" routeLength="1479.35" waitingTime="0.00" waitingCount="0" stopTime="0.00" timeLoss="32.51" rerouteNo="0" devices="tripinfo_sn_bike.15" vType="motorbike" speedFactor="1.07" vaporized=""/>
    <tripinfo id="sn_car.15" depart="144.00" departLane="1189082075#5.102_0" departPos="4.60" departSpeed="0.00" departDelay="36.00" arrival="264.00" arrivalLane="151829692#1_0" arrivalPos="49.23" arrivalSpeed="15.61" duration="120.00" routeLength="1476.73" waitingTime="0.00" waitingCount="0" stopTime="0.00" timeLoss="30.35" rerouteNo="0" devices="tripinfo_sn_car.15" vType="car" speedFactor="1.08" vaporized=""/>
</tripinfos>
