<?xml version="1.0" encoding="UTF-8"?>

<!-- generated on 2026-07-09T12:11:00.714953+05:30 by Eclipse SUMO GUI 1.26.0
<sumoConfiguration xmlns:xsi="http://www.w3.org/2001/XMLSchema-instance" xsi:noNamespaceSchemaLocation="http://sumo.dlr.de/xsd/sumoConfiguration.xsd">

    <input>
        <net-file value="C:\DEV\ATLAS\sumo_map\adaptive\../network/smart5_main.net.xml"/>
        <route-files value="C:\DEV\ATLAS\sumo_map\adaptive\../network/smart5_flows.rou.xml"/>
        <additional-files value="C:\DEV\ATLAS\sumo_map\adaptive\../network/smart5.poly.xml"/>
    </input>

    <output>
        <summary-output value="C:\DEV\ATLAS\sumo_map\adaptive\results/summary_smart.xml"/>
        <tripinfo-output value="C:\DEV\ATLAS\sumo_map\adaptive\results/tripinfo_smart.xml"/>
    </output>

    <time>
        <begin value="0"/>
        <end value="400"/>
        <step-length value="1"/>
    </time>

    <traci_server>
        <remote-port value="1963"/>
    </traci_server>

    <random_number>
        <seed value="42"/>
    </random_number>

</sumoConfiguration>
-->

<tripinfos xmlns:xsi="http://www.w3.org/2001/XMLSchema-instance" xsi:noNamespaceSchemaLocation="http://sumo.dlr.de/xsd/tripinfo_file.xsd">
</tripinfos>
