<?xml version="1.0" encoding="UTF-8"?>

<!-- generated on 2026-07-08T00:57:55.661669+05:30 by Eclipse SUMO sumo 1.26.0
<sumoConfiguration xmlns:xsi="http://www.w3.org/2001/XMLSchema-instance" xsi:noNamespaceSchemaLocation="http://sumo.dlr.de/xsd/sumoConfiguration.xsd">

    <input>
        <net-file value="C:\DEV\ATLAS\sumo_map\adaptive\../network/smart5_main.net.xml"/>
        <route-files value="C:\DEV\ATLAS\sumo_map\adaptive\../network/smart5.rou.xml"/>
        <additional-files value="C:\DEV\ATLAS\sumo_map\adaptive\../network/smart5.poly.xml"/>
    </input>

    <output>
        <summary-output value="C:\DEV\ATLAS\sumo_map\adaptive\results/summary_smart.xml"/>
        <tripinfo-output value="C:\DEV\ATLAS\sumo_map\adaptive\results/tripinfo_smart.xml"/>
    </output>

    <time>
        <begin value="0"/>
        <end value="400"/>
        <step-length value="1"/>
    </time>

    <traci_server>
        <remote-port value="59983"/>
    </traci_server>

    <random_number>
        <random value="true"/>
    </random_number>

</sumoConfiguration>
-->

<tripinfos xmlns:xsi="http://www.w3.org/2001/XMLSchema-instance" xsi:noNamespaceSchemaLocation="http://sumo.dlr.de/xsd/tripinfo_file.xsd">
    <tripinfo id="s10_out_car.0" depart="0.00" departLane="1189082075#5.102_0" departPos="4.60" departSpeed="0.00" departDelay="0.00" arrival="83.00" arrivalLane="1170388412#0_0" arrivalPos="277.72" arrivalSpeed="14.54" duration="83.00" routeLength="1186.21" waitingTime="0.00" waitingCount="0" stopTime="0.00" timeLoss="8.42" rerouteNo="0" devices="tripinfo_s10_out_car.0" vType="car" speedFactor="1.09" vaporized=""/>
    <tripinfo id="sn_bike.1" depart="28.00" departLane="1189082075#5.102_0" departPos="2.10" departSpeed="0.00" departDelay="20.00" arrival="116.00" arrivalLane="151829692#1_0" arrivalPos="49.23" arrivalSpeed="19.88" duration="88.00" routeLength="1479.35" waitingTime="0.00" waitingCount="0" stopTime="0.00" timeLoss="12.64" rerouteNo="0" devices="tripinfo_sn_bike.1" vType="motorbike" speedFactor="1.16" vaporized=""/>
    <tripinfo id="sn_bike.0" depart="6.00" departLane="1189082075#5.102_0" departPos="2.10" departSpeed="0.00" departDelay="6.00" arrival="119.00" arrivalLane="151829692#1_0" arrivalPos="49.23" arrivalSpeed="19.77" duration="113.00" routeLength="1479.35" waitingTime="19.00" waitingCount="1" stopTime="0.00" timeLoss="37.31" rerouteNo="0" devices="tripinfo_sn_bike.0" vType="motorbike" speedFactor="0.87" vaporized=""/>
    <tripinfo id="sn_bike.2" depart="33.00" departLane="1189082075#5.102_0" departPos="2.10" departSpeed="0.00" departDelay="17.00" arrival="120.00" arrivalLane="151829692#1_0" arrivalPos="49.23" arrivalSpeed="19.10" duration="87.00" routeLength="1479.35" waitingTime="0.00" waitingCount="0" stopTime="0.00" timeLoss="12.45" rerouteNo="0" devices="tripinfo_sn_bike.2" vType="motorbike" speedFactor="0.98" vaporized=""/>
    <tripinfo id="s10_in_rick.0" depart="4.00" departLane="-1170388412#0_0" departPos="2.90" departSpeed="0.00" departDelay="4.00" arrival="132.00" arrivalLane="151829692#1_0" arrivalPos="49.23" arrivalSpeed="10.65" duration="128.00" routeLength="1007.59" waitingTime="17.00" waitingCount="1" stopTime="0.00" timeLoss="34.74" rerouteNo="0" devices="tripinfo_s10_in_rick.0" vType="rickshaw" speedFactor="0.96" vaporized=""/>
    <tripinfo id="sn_car.1" depart="26.00" departLane="1189082075#5.102_0" departPos="4.60" departSpeed="0.00" departDelay="18.80" arrival="133.00" arrivalLane="151829692#1_0" arrivalPos="49.23" arrivalSpeed="11.21" duration="107.00" routeLength="1476.73" waitingTime="0.00" waitingCount="0" stopTime="0.00" timeLoss="17.58" rerouteNo="0" devices="tripinfo_sn_car.1" vType="car" speedFactor="0.92" vaporized=""/>
    <tripinfo id="sn_car.0" depart="13.00" departLane="1189082075#5.102_0" departPos="4.60" departSpeed="0.00" departDelay="13.00" arrival="135.00" arrivalLane="151829692#1_0" arrivalPos="49.23" arrivalSpeed="14.37" duration="122.00" routeLength="1476.73" waitingTime="2.00" waitingCount="1" stopTime="0.00" timeLoss="32.60" rerouteNo="0" devices="tripinfo_sn_car.0" vType="car" speedFactor="1.18" vaporized=""/>
    <tripinfo id="sn_bus.0" depart="9.00" departLane="1189082075#5.102_0" departPos="10.60" departSpeed="0.00" departDelay="9.00" arrival="137.00" arrivalLane="151829692#1_0" arrivalPos="49.23" arrivalSpeed="13.07" duration="128.00" routeLength="1470.73" waitingTime="0.00" waitingCount="0" stopTime="0.00" timeLoss="21.11" rerouteNo="0" devices="tripinfo_sn_bus.0" vType="bus" speedFactor="1.00" vaporized=""/>
    <tripinfo id="sn_car.2" depart="31.00" departLane="1189082075#5.102_0" departPos="4.60" departSpeed="0.00" departDelay="16.60" arrival="139.00" arrivalLane="151829692#1_0" arrivalPos="49.23" arrivalSpeed="15.42" duration="108.00" routeLength="1476.73" waitingTime="0.00" waitingCount="0" stopTime="0.00" timeLoss="18.53" rerouteNo="0" devices="tripinfo_sn_car.2" vType="car" speedFactor="0.93" vaporized=""/>
    <tripinfo id="sn_bike.3" depart="45.00" departLane="1189082075#5.102_0" departPos="2.10" departSpeed="0.00" departDelay="21.00" arrival="141.00" arrivalLane="151829692#1_0" arrivalPos="49.23" arrivalSpeed="19.83" duration="96.00" routeLength="1479.35" waitingTime="1.00" waitingCount="1" stopTime="0.00" timeLoss="20.08" rerouteNo="0" devices="tripinfo_sn_bike.3" vType="motorbike" speedFactor="0.74" vaporized=""/>
    <tripinfo id="sn_truck.0" depart="21.00" departLane="1189082075#5.102_0" departPos="8.10" departSpeed="0.00" departDelay="21.00" arrival="144.00" arrivalLane="151829692#1_0" arrivalPos="49.23" arrivalSpeed="13.83" duration="123.00" routeLength="1473.23" waitingTime="0.00" waitingCount="0" stopTime="0.00" timeLoss="15.91" rerouteNo="0" devices="tripinfo_sn_truck.0" vType="truck" speedFactor="0.97" vaporized=""/>
    <tripinfo id="sn_car.3" depart="41.00" departLane="1189082075#5.102_0" departPos="4.60" departSpeed="0.00" departDelay="19.40" arrival="146.00" arrivalLane="151829692#1_0" arrivalPos="49.23" arrivalSpeed="15.82" duration="105.00" routeLength="1476.85" waitingTime="0.00" waitingCount="0" stopTime="0.00" timeLoss="15.14" rerouteNo="0" devices="tripinfo_sn_car.3" vType="car" speedFactor="1.11" vaporized=""/>
    <tripinfo id="sn_bike.4" depart="53.00" departLane="1189082075#5.102_0" departPos="2.10" departSpeed="0.00" departDelay="21.00" arrival="147.00" arrivalLane="151829692#1_0" arrivalPos="49.23" arrivalSpeed="19.40" duration="94.00" routeLength="1479.35" waitingTime="0.00" waitingCount="0" stopTime="0.00" timeLoss="18.73" rerouteNo="0" devices="tripinfo_sn_bike.4" vType="motorbike" speedFactor="0.83" vaporized=""/>
    <tripinfo id="sn_car.4" depart="48.00" departLane="1189082075#5.102_0" departPos="4.60" departSpeed="0.00" departDelay="19.20" arrival="149.00" arrivalLane="151829692#1_0" arrivalPos="49.23" arrivalSpeed="16.67" duration="101.00" routeLength="1476.73" waitingTime="0.00" waitingCount="0" stopTime="0.00" timeLoss="11.17" rerouteNo="0" devices="tripinfo_sn_car.4" vType="car" speedFactor="0.99" vaporized=""/>
    <tripinfo id="sn_bike.5" depart="61.00" departLane="1189082075#5.102_0" departPos="2.10" departSpeed="0.00" departDelay="21.00" arrival="150.00" arrivalLane="151829692#1_0" arrivalPos="49.23" arrivalSpeed="19.37" duration="89.00" routeLength="1479.35" waitingTime="0.00" waitingCount="0" stopTime="0.00" timeLoss="13.98" rerouteNo="0" devices="tripinfo_sn_bike.5" vType="motorbike" speedFactor="1.05" vaporized=""/>
    <tripinfo id="sn_rickshaw.0" depart="16.00" departLane="1189082075#5.102_0" departPos="2.90" departSpeed="0.00" departDelay="16.00" arrival="160.00" arrivalLane="151829692#1_0" arrivalPos="49.23" arrivalSpeed="10.24" duration="144.00" routeLength="1478.43" waitingTime="0.00" waitingCount="0" stopTime="0.00" timeLoss="10.11" rerouteNo="0" devices="tripinfo_sn_rickshaw.0" vType="rickshaw" speedFactor="1.20" vaporized=""/>
    <tripinfo id="s10_out_car.1" depart="50.00" departLane="1189082075#5.102_0" departPos="4.60" departSpeed="0.00" departDelay="20.00" arrival="163.00" arrivalLane="1170388412#0_0" arrivalPos="277.72" arrivalSpeed="12.74" duration="113.00" routeLength="1186.21" waitingTime="6.00" waitingCount="2" stopTime="0.00" timeLoss="34.32" rerouteNo="0" devices="tripinfo_s10_out_car.1" vType="car" speedFactor="0.94" vaporized=""/>
    <tripinfo id="s10_out_car.2" depart="83.00" departLane="1189082075#5.102_0" departPos="4.60" departSpeed="0.00" departDelay="23.00" arrival="175.00" arrivalLane="1170388412#0_0" arrivalPos="277.72" arrivalSpeed="14.93" duration="92.00" routeLength="1186.21" waitingTime="0.00" waitingCount="0" stopTime="0.00" timeLoss="16.48" rerouteNo="0" devices="tripinfo_s10_out_car.2" vType="car" speedFactor="1.08" vaporized=""/>
    <tripinfo id="hw_s_car.0" depart="10.00" departLane="177566553#6_0" departPos="4.60" departSpeed="0.00" departDelay="10.00" arrival="196.00" arrivalLane="183255900#1_0" arrivalPos="24.62" arrivalSpeed="16.45" duration="186.00" routeLength="2243.07" waitingTime="6.00" waitingCount="1" stopTime="0.00" timeLoss="25.37" rerouteNo="0" devices="tripinfo_hw_s_car.0" vType="car" speedFactor="1.10" vaporized=""/>
    <tripinfo id="hw_bus.0" depart="0.00" departLane="177566553#6_0" departPos="10.60" departSpeed="0.00" departDelay="0.00" arrival="201.00" arrivalLane="183255900#1_0" arrivalPos="24.62" arrivalSpeed="13.52" duration="201.00" routeLength="2237.07" waitingTime="0.00" waitingCount="0" stopTime="0.00" timeLoss="19.06" rerouteNo="0" devices="tripinfo_hw_bus.0" vType="bus" speedFactor="1.00" vaporized=""/>
    <tripinfo id="hw_s_bike.1" depart="25.00" departLane="177566553#6_0" departPos="2.10" departSpeed="0.00" departDelay="7.00" arrival="204.00" arrivalLane="183255900#1_0" arrivalPos="24.62" arrivalSpeed="18.49" duration="179.00" routeLength="2245.57" waitingTime="1.00" waitingCount="1" stopTime="0.00" timeLoss="23.84" rerouteNo="0" devices="tripinfo_hw_s_bike.1" vType="motorbike" speedFactor="1.04" vaporized=""/>
    <tripinfo id="sn_bike.6" depart="70.00" departLane="1189082075#5.102_0" departPos="2.10" departSpeed="0.00" departDelay="22.00" arrival="207.00" arrivalLane="151829692#1_0" arrivalPos="49.23" arrivalSpeed="19.12" duration="137.00" routeLength="1479.35" waitingTime="43.00" waitingCount="1" stopTime="0.00" timeLoss="61.37" rerouteNo="0" devices="tripinfo_sn_bike.6" vType="motorbike" speedFactor="0.79" vaporized=""/>
    <tripinfo id="sn_car.5" depart="58.00" departLane="1189082075#5.102_0" departPos="4.60" departSpeed="0.00" departDelay="22.00" arrival="210.00" arrivalLane="151829692#1_0" arrivalPos="49.23" arrivalSpeed="15.75" duration="152.00" routeLength="1476.85" waitingTime="46.00" waitingCount="1" stopTime="0.00" timeLoss="62.01" rerouteNo="0" devices="tripinfo_sn_car.5" vType="car" speedFactor="0.96" vaporized=""/>
    <tripinfo id="sn_car.6" depart="66.00" departLane="1189082075#5.102_0" departPos="4.60" departSpeed="0.00" departDelay="22.80" arrival="211.00" arrivalLane="151829692#1_0" arrivalPos="49.23" arrivalSpeed="16.67" duration="145.00" routeLength="1476.85" waitingTime="40.00" waitingCount="1" stopTime="0.00" timeLoss="55.76" rerouteNo="0" devices="tripinfo_sn_car.6" vType="car" speedFactor="1.07" vaporized=""/>
    <tripinfo id="hw_s_car.1" depart="22.00" departLane="177566553#6_0" departPos="4.60" departSpeed="0.00" departDelay="7.60" arrival="214.00" arrivalLane="183255900#1_0" arrivalPos="24.62" arrivalSpeed="16.21" duration="192.00" routeLength="2243.07" waitingTime="0.00" waitingCount="0" stopTime="0.00" timeLoss="14.41" rerouteNo="0" devices="tripinfo_hw_s_car.1" vType="car" speedFactor="0.93" vaporized=""/>
    <tripinfo id="hw_s_bike.0" depart="7.00" departLane="177566553#6_0" departPos="2.10" departSpeed="0.00" departDelay="7.00" arrival="217.00" arrivalLane="183255900#1_0" arrivalPos="24.62" arrivalSpeed="18.26" duration="210.00" routeLength="2245.57" waitingTime="0.00" waitingCount="0" stopTime="0.00" timeLoss="32.50" rerouteNo="0" devices="tripinfo_hw_s_bike.0" vType="motorbike" speedFactor="0.86" vaporized=""/>
    <tripinfo id="s10_in_rick.1" depart="45.00" departLane="-1170388412#0_0" departPos="2.90" departSpeed="0.00" departDelay="0.00" arrival="222.00" arrivalLane="151829692#1_0" arrivalPos="49.23" arrivalSpeed="10.73" duration="177.00" routeLength="1007.59" waitingTime="57.00" waitingCount="2" stopTime="0.00" timeLoss="83.73" rerouteNo="0" devices="tripinfo_s10_in_rick.1" vType="rickshaw" speedFactor="0.88" vaporized=""/>
    <tripinfo id="sn_car.9" depart="91.00" departLane="1189082075#5.102_0" departPos="4.60" departSpeed="0.00" departDelay="26.20" arrival="223.00" arrivalLane="151829692#1_0" arrivalPos="49.23" arrivalSpeed="12.13" duration="132.00" routeLength="1476.73" waitingTime="18.00" waitingCount="1" stopTime="0.00" timeLoss="42.97" rerouteNo="0" devices="tripinfo_sn_car.9" vType="car" speedFactor="1.02" vaporized=""/>
    <tripinfo id="sn_car.7" depart="73.00" departLane="1189082075#5.102_0" departPos="4.60" departSpeed="0.00" departDelay="22.60" arrival="225.00" arrivalLane="151829692#1_0" arrivalPos="49.23" arrivalSpeed="14.93" duration="152.00" routeLength="1476.73" waitingTime="31.00" waitingCount="1" stopTime="0.00" timeLoss="62.34" rerouteNo="0" devices="tripinfo_sn_car.7" vType="car" speedFactor="1.11" vaporized=""/>
    <tripinfo id="sn_car.11" depart="108.00" departLane="1189082075#5.102_0" departPos="4.60" departSpeed="0.00" departDelay="28.80" arrival="226.00" arrivalLane="151829692#1_0" arrivalPos="49.23" arrivalSpeed="14.01" duration="118.00" routeLength="1476.85" waitingTime="3.00" waitingCount="1" stopTime="0.00" timeLoss="29.21" rerouteNo="0" devices="tripinfo_sn_car.11" vType="car" speedFactor="1.10" vaporized=""/>
    <tripinfo id="sn_bike.11" depart="118.00" departLane="1189082075#5.102_0" departPos="2.10" departSpeed="0.00" departDelay="30.00" arrival="227.00" arrivalLane="151829692#1_1" arrivalPos="49.23" arrivalSpeed="19.66" duration="109.00" routeLength="1479.23" waitingTime="5.00" waitingCount="1" stopTime="0.00" timeLoss="33.25" rerouteNo="0" devices="tripinfo_sn_bike.11" vType="motorbike" speedFactor="0.87" vaporized=""/>
    <tripinfo id="sn_bike.10" depart="110.00" departLane="1189082075#5.102_0" departPos="2.10" departSpeed="0.00" departDelay="30.00" arrival="228.00" arrivalLane="151829692#1_0" arrivalPos="49.23" arrivalSpeed="17.71" duration="118.00" routeLength="1479.35" waitingTime="8.00" waitingCount="1" stopTime="0.00" timeLoss="42.57" rerouteNo="0" devices="tripinfo_sn_bike.10" vType="motorbike" speedFactor="0.96" vaporized=""/>
    <tripinfo id="sn_car.8" depart="80.00" departLane="1189082075#5.102_0" departPos="4.60" departSpeed="0.00" departDelay="22.40" arrival="230.00" arrivalLane="151829692#1_0" arrivalPos="49.23" arrivalSpeed="16.39" duration="150.00" routeLength="1476.85" waitingTime="29.00" waitingCount="2" stopTime="0.00" timeLoss="60.20" rerouteNo="0" devices="tripinfo_sn_car.8" vType="car" speedFactor="0.89" vaporized=""/>
    <tripinfo id="sn_bike.12" depart="130.00" departLane="1189082075#5.102_0" departPos="2.10" departSpeed="0.00" departDelay="34.00" arrival="231.00" arrivalLane="151829692#1_0" arrivalPos="49.23" arrivalSpeed="18.60" duration="101.00" routeLength="1479.35" waitingTime="0.00" waitingCount="0" stopTime="0.00" timeLoss="26.03" rerouteNo="0" devices="tripinfo_sn_bike.12" vType="motorbike" speedFactor="1.18" vaporized=""/>
    <tripinfo id="sn_bike.7" depart="77.00" departLane="1189082075#5.102_0" departPos="2.10" departSpeed="0.00" departDelay="21.00" arrival="233.00" arrivalLane="151829692#1_0" arrivalPos="49.23" arrivalSpeed="18.32" duration="156.00" routeLength="1479.35" waitingTime="36.00" waitingCount="1" stopTime="0.00" timeLoss="80.31" rerouteNo="0" devices="tripinfo_sn_bike.7" vType="motorbike" speedFactor="1.06" vaporized=""/>
    <tripinfo id="s_hw_car.1" depart="35.00" departLane="1189082075#5.102_0" departPos="4.60" departSpeed="0.00" departDelay="17.00" arrival="234.00" arrivalLane="1265532934#1_1" arrivalPos="99.94" arrivalSpeed="16.58" duration="199.00" routeLength="2291.93" waitingTime="0.00" waitingCount="0" stopTime="0.00" timeLoss="17.72" rerouteNo="0" devices="tripinfo_s_hw_car.1" vType="car" speedFactor="0.92" vaporized=""/>
    <tripinfo id="s_hw_car.0" depart="4.00" departLane="1189082075#5.102_0" departPos="4.60" departSpeed="0.00" departDelay="4.00" arrival="236.00" arrivalLane="1265532934#1_0" arrivalPos="99.94" arrivalSpeed="16.49" duration="232.00" routeLength="2297.34" waitingTime="35.00" waitingCount="1" stopTime="0.00" timeLoss="58.37" rerouteNo="0" devices="tripinfo_s_hw_car.0" vType="car" speedFactor="0.99" vaporized=""/>
    <tripinfo id="sn_rickshaw.1" depart="38.00" departLane="1189082075#5.102_0" departPos="2.90" departSpeed="0.00" departDelay="18.00" arrival="238.00" arrivalLane="151829692#1_0" arrivalPos="49.23" arrivalSpeed="10.62" duration="200.00" routeLength="1478.43" waitingTime="36.00" waitingCount="1" stopTime="0.00" timeLoss="66.47" rerouteNo="0" devices="tripinfo_sn_rickshaw.1" vType="rickshaw" speedFactor="0.96" vaporized=""/>
    <tripinfo id="sn_car.13" depart="126.00" departLane="1189082075#5.102_0" departPos="4.60" departSpeed="0.00" departDelay="32.40" arrival="240.00" arrivalLane="151829692#1_0" arrivalPos="49.23" arrivalSpeed="12.87" duration="114.00" routeLength="1476.85" waitingTime="0.00" waitingCount="0" stopTime="0.00" timeLoss="24.19" rerouteNo="0" devices="tripinfo_sn_car.13" vType="car" speedFactor="0.86" vaporized=""/>
    <tripinfo id="sn_bike.14" depart="146.00" departLane="1189082075#5.102_0" departPos="2.10" departSpeed="0.00" departDelay="34.00" arrival="242.00" arrivalLane="151829692#1_0" arrivalPos="49.23" arrivalSpeed="15.49" duration="96.00" routeLength="1479.35" waitingTime="0.00" waitingCount="0" stopTime="0.00" timeLoss="20.28" rerouteNo="0" devices="tripinfo_sn_bike.14" vType="motorbike" speedFactor="0.83" vaporized=""/>
    <tripinfo id="sn_bike.8" depart="88.00" departLane="1189082075#5.102_0" departPos="2.10" departSpeed="0.00" departDelay="24.00" arrival="243.00" arrivalLane="151829692#1_0" arrivalPos="49.23" arrivalSpeed="15.07" duration="155.00" routeLength="1479.35" waitingTime="26.00" waitingCount="2" stopTime="0.00" timeLoss="79.88" rerouteNo="0" devices="tripinfo_sn_bike.8" vType="motorbike" speedFactor="0.96" vaporized=""/>
    <tripinfo id="sn_bike.13" depart="137.00" departLane="1189082075#5.102_0" departPos="2.10" departSpeed="0.00" departDelay="33.00" arrival="244.00" arrivalLane="151829692#1_0" arrivalPos="49.23" arrivalSpeed="16.89" duration="107.00" routeLength="1479.35" waitingTime="0.00" waitingCount="0" stopTime="0.00" timeLoss="32.27" rerouteNo="0" devices="tripinfo_sn_bike.13" vType="motorbike" speedFactor="1.11" vaporized=""/>
    <tripinfo id="s_hw_car.2" depart="56.00" departLane="1189082075#5.102_0" departPos="4.60" departSpeed="0.00" departDelay="20.00" arrival="245.00" arrivalLane="1265532934#1_0" arrivalPos="99.94" arrivalSpeed="16.25" duration="189.00" routeLength="2297.34" waitingTime="0.00" waitingCount="0" stopTime="0.00" timeLoss="15.59" rerouteNo="0" devices="tripinfo_s_hw_car.2" vType="car" speedFactor="0.98" vaporized=""/>
    <tripinfo id="s10_in_rick.2" depart="92.00" departLane="-1170388412#0_0" departPos="2.90" departSpeed="0.00" departDelay="2.00" arrival="249.00" arrivalLane="151829692#1_0" arrivalPos="49.23" arrivalSpeed="10.87" duration="157.00" routeLength="1007.59" waitingTime="23.00" waitingCount="1" stopTime="0.00" timeLoss="64.16" rerouteNo="0" devices="tripinfo_s10_in_rick.2" vType="rickshaw" speedFactor="0.92" vaporized=""/>
    <tripinfo id="sn_bike.9" depart="98.00" departLane="1189082075#5.102_0" departPos="2.10" departSpeed="0.00" departDelay="26.00" arrival="250.00" arrivalLane="151829692#1_0" arrivalPos="49.23" arrivalSpeed="14.41" duration="152.00" routeLength="1479.35" waitingTime="21.00" waitingCount="1" stopTime="0.00" timeLoss="76.93" rerouteNo="0" devices="tripinfo_sn_bike.9" vType="motorbike" speedFactor="0.94" vaporized=""/>
    <tripinfo id="sn_truck.1" depart="104.00" departLane="1189082075#5.102_0" departPos="8.10" departSpeed="0.00" departDelay="32.00" arrival="253.00" arrivalLane="151829692#1_0" arrivalPos="49.23" arrivalSpeed="13.59" duration="149.00" routeLength="1473.23" waitingTime="0.00" waitingCount="0" stopTime="0.00" timeLoss="41.44" rerouteNo="0" devices="tripinfo_sn_truck.1" vType="truck" speedFactor="0.96" vaporized=""/>
    <tripinfo id="s10_out_car.3" depart="120.00" departLane="1189082075#5.102_0" departPos="4.60" departSpeed="0.00" departDelay="30.00" arrival="253.00" arrivalLane="1170388412#0_0" arrivalPos="277.72" arrivalSpeed="12.84" duration="133.00" routeLength="1186.21" waitingTime="33.00" waitingCount="2" stopTime="0.00" timeLoss="53.96" rerouteNo="0" devices="tripinfo_s10_out_car.3" vType="car" speedFactor="0.93" vaporized=""/>
    <tripinfo id="sn_rickshaw.2" depart="63.00" departLane="1189082075#5.102_0" departPos="2.90" departSpeed="0.00" departDelay="23.00" arrival="256.00" arrivalLane="151829692#1_0" arrivalPos="49.23" arrivalSpeed="10.59" duration="193.00" routeLength="1478.43" waitingTime="16.00" waitingCount="1" stopTime="0.00" timeLoss="59.11" rerouteNo="0" devices="tripinfo_sn_rickshaw.2" vType="rickshaw" speedFactor="1.06" vaporized=""/>
    <tripinfo id="sn_car.10" depart="101.00" departLane="1189082075#5.102_0" departPos="4.60" departSpeed="0.00" departDelay="29.00" arrival="257.00" arrivalLane="151829692#1_0" arrivalPos="49.23" arrivalSpeed="13.94" duration="156.00" routeLength="1476.73" waitingTime="13.00" waitingCount="1" stopTime="0.00" timeLoss="66.45" rerouteNo="0" devices="tripinfo_sn_car.10" vType="car" speedFactor="0.92" vaporized=""/>
    <tripinfo id="s10_out_car.4" depart="151.00" departLane="1189082075#5.102_0" departPos="4.60" departSpeed="0.00" departDelay="31.00" arrival="259.00" arrivalLane="1170388412#0_0" arrivalPos="277.72" arrivalSpeed="10.36" duration="108.00" routeLength="1186.21" waitingTime="1.00" waitingCount="1" stopTime="0.00" timeLoss="24.58" rerouteNo="0" devices="tripinfo_s10_out_car.4" vType="car" speedFactor="0.83" vaporized=""/>
    <tripinfo id="sn_rickshaw.3" depart="86.00" departLane="1189082075#5.102_0" departPos="2.90" departSpeed="0.00" departDelay="26.00" arrival="260.00" arrivalLane="151829692#1_0" arrivalPos="49.23" arrivalSpeed="11.06" duration="174.00" routeLength="1478.43" waitingTime="0.00" waitingCount="0" stopTime="0.00" timeLoss="40.09" rerouteNo="0" devices="tripinfo_sn_rickshaw.3" vType="rickshaw" speedFactor="1.01" vaporized=""/>
    <tripinfo id="sn_car.12" depart="116.00" departLane="1189082075#5.102_0" departPos="4.60" departSpeed="0.00" departDelay="29.60" arrival="261.00" arrivalLane="151829692#1_0" arrivalPos="49.23" arrivalSpeed="12.07" duration="145.00" routeLength="1476.73" waitingTime="6.00" waitingCount="2" stopTime="0.00" timeLoss="55.66" rerouteNo="0" devices="tripinfo_sn_car.12" vType="car" speedFactor="0.96" vaporized=""/>
    <tripinfo id="sn_car.14" depart="135.00" departLane="1189082075#5.102_0" departPos="4.60" departSpeed="0.00" departDelay="34.20" arrival="263.00" arrivalLane="151829692#1_0" arrivalPos="49.23" arrivalSpeed="12.50" duration="128.00" routeLength="1476.85" waitingTime="1.00" waitingCount="1" stopTime="0.00" timeLoss="38.76" rerouteNo="0" devices="tripinfo_sn_car.14" vType="car" speedFactor="1.09" vaporized=""/>
    <tripinfo id="sn_bike.15" depart="155.00" departLane="1189082075#5.102_0" departPos="2.10" departSpeed="0.00" departDelay="35.00" arrival="263.00" arrivalLane="151829692#1_1" arrivalPos="49.23" arrivalSpeed="19.18" duration="108.00" routeLength="1479.35" waitingTime="0.00" waitingCount="0" stopTime="0.00" timeLoss="32.92" rerouteNo="0" devices="tripinfo_sn_bike.15" vType="motorbike" speedFactor="0.97" vaporized=""/>
    <tripinfo id="hw_s_bike.3" depart="56.00" departLane="177566553#6_0" departPos="2.10" departSpeed="0.00" departDelay="2.00" arrival="265.00" arrivalLane="183255900#1_0" arrivalPos="24.62" arrivalSpeed="17.91" duration="209.00" routeLength="2245.57" waitingTime="23.00" waitingCount="1" stopTime="0.00" timeLoss="53.26" rerouteNo="0" devices="tripinfo_hw_s_bike.3" vType="motorbike" speedFactor="1.04" vaporized=""/>
    <tripinfo id="sn_car.15" depart="143.00" departLane="1189082075#5.102_0" departPos="4.60" departSpeed="0.00" departDelay="35.00" arrival="265.00" arrivalLane="151829692#1_0" arrivalPos="49.23" arrivalSpeed="15.34" duration="122.00" routeLength="1476.73" waitingTime="0.00" waitingCount="0" stopTime="0.00" timeLoss="32.26" rerouteNo="0" devices="tripinfo_sn_car.15" vType="car" speedFactor="1.05" vaporized=""/>
    <tripinfo id="hw_s_car.2" depart="32.00" departLane="177566553#6_0" departPos="4.60" departSpeed="0.00" departDelay="3.20" arrival="271.00" arrivalLane="183255900#1_0" arrivalPos="24.62" arrivalSpeed="16.69" duration="239.00" routeLength="2243.07" waitingTime="44.00" waitingCount="1" stopTime="0.00" timeLoss="83.56" rerouteNo="0" devices="tripinfo_hw_s_car.2" vType="car" speedFactor="1.16" vaporized=""/>
    <tripinfo id="hw_s_bike.4" depart="77.00" departLane="177566553#6_0" departPos="2.10" departSpeed="0.00" departDelay="5.00" arrival="276.00" arrivalLane="183255900#1_1" arrivalPos="24.62" arrivalSpeed="17.80" duration="199.00" routeLength="2245.57" waitingTime="1.00" waitingCount="1" stopTime="0.00" timeLoss="41.83" rerouteNo="0" devices="tripinfo_hw_s_bike.4" vType="motorbike" speedFactor="1.02" vaporized=""/>
    <tripinfo id="hw_s_car.4" depart="61.00" departLane="177566553#6_0" departPos="4.60" departSpeed="0.00" departDelay="3.40" arrival="277.00" arrivalLane="183255900#1_0" arrivalPos="24.62" arrivalSpeed="15.57" duration="216.00" routeLength="2243.07" waitingTime="17.00" waitingCount="2" stopTime="0.00" timeLoss="43.29" rerouteNo="0" devices="tripinfo_hw_s_car.4" vType="car" speedFactor="0.97" vaporized=""/>
    <tripinfo id="hw_s_bike.5" depart="94.00" departLane="177566553#6_0" departPos="2.10" departSpeed="0.00" departDelay="4.00" arrival="278.00" arrivalLane="183255900#1_0" arrivalPos="24.62" arrivalSpeed="18.45" duration="184.00" routeLength="2245.57" waitingTime="0.00" waitingCount="0" stopTime="0.00" timeLoss="34.38" rerouteNo="0" devices="tripinfo_hw_s_bike.5" vType="motorbike" speedFactor="1.11" vaporized=""/>
    <tripinfo id="hw_s_bike.2" depart="38.00" departLane="177566553#6_0" departPos="2.10" departSpeed="0.00" departDelay="2.00" arrival="288.00" arrivalLane="183255900#1_0" arrivalPos="24.62" arrivalSpeed="19.85" duration="250.00" routeLength="2245.57" waitingTime="38.00" waitingCount="1" stopTime="0.00" timeLoss="73.84" rerouteNo="0" devices="tripinfo_hw_s_bike.2" vType="motorbike" speedFactor="0.87" vaporized=""/>
    <tripinfo id="hw_s_car.3" depart="47.00" departLane="177566553#6_0" departPos="4.60" departSpeed="0.00" departDelay="3.80" arrival="299.00" arrivalLane="183255900#1_0" arrivalPos="24.62" arrivalSpeed="16.62" duration="252.00" routeLength="2243.07" waitingTime="31.00" waitingCount="1" stopTime="0.00" timeLoss="58.26" rerouteNo="0" devices="tripinfo_hw_s_car.3" vType="car" speedFactor="0.81" vaporized=""/>
    <tripinfo id="sn_car.16" depart="148.00" departLane="1189082075#5.102_0" departPos="4.60" departSpeed="0.00" departDelay="32.80" arrival="299.00" arrivalLane="151829692#1_0" arrivalPos="49.23" arrivalSpeed="16.26" duration="151.00" routeLength="1476.85" waitingTime="43.00" waitingCount="1" stopTime="0.00" timeLoss="61.72" rerouteNo="0" devices="tripinfo_sn_car.16" vType="car" speedFactor="0.95" vaporized=""/>
    <tripinfo id="hw_s_car.6" depart="89.00" departLane="177566553#6_0" departPos="4.60" departSpeed="0.00" departDelay="2.60" arrival="302.00" arrivalLane="183255900#1_0" arrivalPos="24.62" arrivalSpeed="16.32" duration="213.00" routeLength="2243.07" waitingTime="0.00" waitingCount="0" stopTime="0.00" timeLoss="41.38" rerouteNo="0" devices="tripinfo_hw_s_car.6" vType="car" speedFactor="0.99" vaporized=""/>
    <tripinfo id="hw_s_car.5" depart="80.00" departLane="177566553#6_0" departPos="4.60" departSpeed="0.00" departDelay="8.00" arrival="303.00" arrivalLane="183255900#1_1" arrivalPos="24.62" arrivalSpeed="16.66" duration="223.00" routeLength="2243.07" waitingTime="1.00" waitingCount="1" stopTime="0.00" timeLoss="32.80" rerouteNo="0" devices="tripinfo_hw_s_car.5" vType="car" speedFactor="0.84" vaporized=""/>
    <tripinfo id="hw_s_bike.6" depart="109.00" departLane="177566553#6_0" departPos="2.10" departSpeed="0.00" departDelay="1.00" arrival="305.00" arrivalLane="183255900#1_1" arrivalPos="24.62" arrivalSpeed="19.38" duration="196.00" routeLength="2245.57" waitingTime="0.00" waitingCount="0" stopTime="0.00" timeLoss="37.73" rerouteNo="0" devices="tripinfo_hw_s_bike.6" vType="motorbike" speedFactor="1.02" vaporized=""/>
    <tripinfo id="hw_s_car.7" depart="103.00" departLane="177566553#6_0" departPos="4.60" departSpeed="0.00" departDelay="2.20" arrival="307.00" arrivalLane="183255900#1_0" arrivalPos="24.62" arrivalSpeed="15.55" duration="204.00" routeLength="2243.07" waitingTime="0.00" waitingCount="0" stopTime="0.00" timeLoss="27.56" rerouteNo="0" devices="tripinfo_hw_s_car.7" vType="car" speedFactor="0.94" vaporized=""/>
    <tripinfo id="sn_rickshaw.4" depart="113.00" departLane="1189082075#5.102_0" departPos="2.90" departSpeed="0.00" departDelay="33.00" arrival="309.00" arrivalLane="151829692#1_0" arrivalPos="49.23" arrivalSpeed="10.47" duration="196.00" routeLength="1478.43" waitingTime="44.00" waitingCount="1" stopTime="0.00" timeLoss="62.68" rerouteNo="0" devices="tripinfo_sn_rickshaw.4" vType="rickshaw" speedFactor="1.05" vaporized=""/>