<?xml version="1.0" encoding="UTF-8"?>

<!-- generated on 2026-07-09T12:06:56.406664+05:30 by Eclipse SUMO sumo 1.26.0
<sumoConfiguration xmlns:xsi="http://www.w3.org/2001/XMLSchema-instance" xsi:noNamespaceSchemaLocation="http://sumo.dlr.de/xsd/sumoConfiguration.xsd">

    <input>
        <net-file value="C:\DEV\ATLAS\sumo_map\adaptive\../network/smart5_main.net.xml"/>
        <route-files value="C:\DEV\ATLAS\sumo_map\adaptive\../network/smart5_flows.rou.xml"/>
        <additional-files value="C:\DEV\ATLAS\sumo_map\adaptive\../network/smart5.poly.xml"/>
    </input>

    <output>
        <summary-output value="C:\DEV\ATLAS\sumo_map\adaptive\results\summary_stage3.xml"/>
        <tripinfo-output value="C:\DEV\ATLAS\sumo_map\adaptive\results\tripinfo_stage3.xml"/>
    </output>

    <time>
        <begin value="0"/>
        <end value="400"/>
        <step-length value="1"/>
    </time>

    <traci_server>
        <remote-port value="61724"/>
    </traci_server>

    <random_number>
        <seed value="42"/>
    </random_number>

</sumoConfiguration>
-->

<tripinfos xmlns:xsi="http://www.w3.org/2001/XMLSchema-instance" xsi:noNamespaceSchemaLocation="http://sumo.dlr.de/xsd/tripinfo_file.xsd">
    <tripinfo id="s10_in_rick.0" depart="4.00" departLane="-1170388412#0_0" departPos="2.90" departSpeed="0.00" departDelay="4.00" arrival="129.00" arrivalLane="151829692#1_0" arrivalPos="49.23" arrivalSpeed="10.24" duration="125.00" routeLength="1007.59" waitingTime="15.00" waitingCount="1" stopTime="0.00" timeLoss="32.70" rerouteNo="1" devices="tripinfo_s10_in_rick.0 routing_s10_in_rick.0" vType="rickshaw" speedFactor="1.05" vaporized=""/>
    <tripinfo id="sn_bike.0" depart="2.00" departLane="1189082075#5.102_0" departPos="2.10" departSpeed="0.00" departDelay="2.00" arrival="130.00" arrivalLane="151829692#1_0" arrivalPos="49.23" arrivalSpeed="12.71" duration="128.00" routeLength="1479.23" waitingTime="3.00" waitingCount="1" stopTime="0.00" timeLoss="29.94" rerouteNo="1" devices="tripinfo_sn_bike.0 routing_sn_bike.0" vType="motorbike" speedFactor="1.08" vaporized=""/>
    <tripinfo id="sn_car.0" depart="0.00" departLane="1189082075#5.102_0" departPos="4.60" departSpeed="0.00" departDelay="0.00" arrival="132.00" arrivalLane="151829692#1_0" arrivalPos="49.23" arrivalSpeed="12.20" duration="132.00" routeLength="1476.73" waitingTime="0.00" waitingCount="0" stopTime="0.00" timeLoss="17.56" rerouteNo="1" devices="tripinfo_sn_car.0 routing_sn_car.0" vType="car" speedFactor="0.93" vaporized=""/>
    <tripinfo id="sn_bus.0" depart="10.00" departLane="1189082075#5.102_0" departPos="10.60" departSpeed="0.00" departDelay="10.00" arrival="134.00" arrivalLane="151829692#1_0" arrivalPos="49.23" arrivalSpeed="13.75" duration="124.00" routeLength="1470.73" waitingTime="0.00" waitingCount="0" stopTime="0.00" timeLoss="17.46" rerouteNo="1" devices="tripinfo_sn_bus.0 routing_sn_bus.0" vType="bus" speedFactor="1.00" vaporized=""/>
    <tripinfo id="sn_truck.0" depart="15.00" departLane="1189082075#5.102_0" departPos="8.10" departSpeed="0.00" departDelay="15.00" arrival="136.00" arrivalLane="151829692#1_0" arrivalPos="49.23" arrivalSpeed="13.68" duration="121.00" routeLength="1473.35" waitingTime="0.00" waitingCount="0" stopTime="0.00" timeLoss="14.49" rerouteNo="1" devices="tripinfo_sn_truck.0 routing_sn_truck.0" vType="truck" speedFactor="1.07" vaporized=""/>
    <tripinfo id="sn_bike.2" depart="34.00" departLane="1189082075#5.102_0" departPos="2.10" departSpeed="0.00" departDelay="12.51" arrival="139.00" arrivalLane="151829692#1_0" arrivalPos="49.23" arrivalSpeed="14.06" duration="105.00" routeLength="1479.35" waitingTime="0.00" waitingCount="0" stopTime="0.00" timeLoss="11.82" rerouteNo="1" devices="tripinfo_sn_bike.2 routing_sn_bike.2" vType="motorbike" speedFactor="1.15" vaporized=""/>
    <tripinfo id="sn_rickshaw.0" depart="4.00" departLane="1189082075#5.102_0" departPos="2.90" departSpeed="0.00" departDelay="4.00" arrival="150.00" arrivalLane="151829692#1_0" arrivalPos="49.23" arrivalSpeed="10.12" duration="146.00" routeLength="1478.43" waitingTime="0.00" waitingCount="0" stopTime="0.00" timeLoss="12.01" rerouteNo="1" devices="tripinfo_sn_rickshaw.0 routing_sn_rickshaw.0" vType="rickshaw" speedFactor="1.03" vaporized=""/>
    <tripinfo id="sn_car.1" depart="27.00" departLane="1189082075#5.102_0" departPos="4.60" departSpeed="0.00" departDelay="17.53" arrival="151.00" arrivalLane="151829692#1_0" arrivalPos="49.23" arrivalSpeed="11.91" duration="124.00" routeLength="1476.73" waitingTime="0.00" waitingCount="0" stopTime="0.00" timeLoss="10.82" rerouteNo="1" devices="tripinfo_sn_car.1 routing_sn_car.1" vType="car" speedFactor="0.94" vaporized=""/>
    <tripinfo id="sn_bike.1" depart="29.00" departLane="1189082075#5.102_0" departPos="2.10" departSpeed="0.00" departDelay="18.25" arrival="153.00" arrivalLane="151829692#1_0" arrivalPos="49.23" arrivalSpeed="12.26" duration="124.00" routeLength="1479.23" waitingTime="0.00" waitingCount="0" stopTime="0.00" timeLoss="17.12" rerouteNo="1" devices="tripinfo_sn_bike.1 routing_sn_bike.1" vType="motorbike" speedFactor="1.00" vaporized=""/>
    <tripinfo id="s10_out_car.0" depart="24.00" departLane="1189082075#5.102_0" departPos="4.60" departSpeed="0.00" departDelay="24.00" arrival="159.00" arrivalLane="1170388412#0_0" arrivalPos="277.72" arrivalSpeed="14.44" duration="135.00" routeLength="1186.21" waitingTime="38.00" waitingCount="1" stopTime="0.00" timeLoss="57.46" rerouteNo="1" devices="tripinfo_s10_out_car.0 routing_s10_out_car.0" vType="car" speedFactor="1.12" vaporized=""/>
    <tripinfo id="hw_s_car.0" depart="5.00" departLane="177566553#6_0" departPos="4.60" departSpeed="0.00" departDelay="5.00" arrival="162.00" arrivalLane="183255900#1_0" arrivalPos="24.62" arrivalSpeed="13.44" duration="157.00" routeLength="2243.07" waitingTime="0.00" waitingCount="0" stopTime="0.00" timeLoss="12.32" rerouteNo="1" devices="tripinfo_hw_s_car.0 routing_hw_s_car.0" vType="car" speedFactor="1.00" vaporized=""/>
    <tripinfo id="hw_s_bike.0" depart="7.00" departLane="177566553#6_0" departPos="2.10" departSpeed="0.00" departDelay="7.00" arrival="166.00" arrivalLane="183255900#1_0" arrivalPos="24.62" arrivalSpeed="11.70" duration="159.00" routeLength="2251.71" waitingTime="0.00" waitingCount="0" stopTime="0.00" timeLoss="22.94" rerouteNo="1" devices="tripinfo_hw_s_bike.0 routing_hw_s_bike.0" vType="motorbike" speedFactor="0.99" vaporized=""/>
    <tripinfo id="s10_out_car.1" depart="44.00" departLane="1189082075#5.102_0" departPos="4.60" departSpeed="0.00" departDelay="14.00" arrival="169.00" arrivalLane="1170388412#0_0" arrivalPos="277.72" arrivalSpeed="10.95" duration="125.00" routeLength="1186.21" waitingTime="7.00" waitingCount="1" stopTime="0.00" timeLoss="22.55" rerouteNo="1" devices="tripinfo_s10_out_car.1 routing_s10_out_car.1" vType="car" speedFactor="0.85" vaporized=""/>
    <tripinfo id="s_hw_car.0" depart="19.00" departLane="1189082075#5.102_0" departPos="4.60" departSpeed="0.00" departDelay="19.00" arrival="171.00" arrivalLane="1265532934#1_0" arrivalPos="99.94" arrivalSpeed="16.48" duration="152.00" routeLength="2291.93" waitingTime="0.00" waitingCount="0" stopTime="0.00" timeLoss="12.14" rerouteNo="1" devices="tripinfo_s_hw_car.0 routing_s_hw_car.0" vType="car" speedFactor="1.16" vaporized=""/>
    <tripinfo id="s10_out_car.2" depart="67.00" departLane="1189082075#5.102_0" departPos="4.60" departSpeed="0.00" departDelay="7.00" arrival="179.00" arrivalLane="1170388412#0_0" arrivalPos="277.72" arrivalSpeed="11.86" duration="112.00" routeLength="1186.21" waitingTime="0.00" waitingCount="0" stopTime="0.00" timeLoss="10.77" rerouteNo="1" devices="tripinfo_s10_out_car.2 routing_s10_out_car.2" vType="car" speedFactor="0.86" vaporized=""/>
    <tripinfo id="hw_s_car.1" depart="23.00" departLane="177566553#6_0" departPos="4.60" departSpeed="0.00" departDelay="5.00" arrival="185.00" arrivalLane="183255900#1_0" arrivalPos="24.62" arrivalSpeed="12.50" duration="162.00" routeLength="2249.21" waitingTime="0.00" waitingCount="0" stopTime="0.00" timeLoss="12.27" rerouteNo="1" devices="tripinfo_hw_s_car.1 routing_hw_s_car.1" vType="car" speedFactor="0.94" vaporized=""/>
    <tripinfo id="hw_bus.0" depart="16.00" departLane="177566553#6_0" departPos="10.60" departSpeed="0.00" departDelay="16.00" arrival="192.00" arrivalLane="183255900#1_0" arrivalPos="24.62" arrivalSpeed="13.89" duration="176.00" routeLength="2237.07" waitingTime="0.00" waitingCount="0" stopTime="0.00" timeLoss="13.90" rerouteNo="1" devices="tripinfo_hw_bus.0 routing_hw_bus.0" vType="bus" speedFactor="1.00" vaporized=""/>
    <tripinfo id="s10_out_car.3" depart="95.00" departLane="1189082075#5.102_0" departPos="4.60" departSpeed="0.00" departDelay="5.00" arrival="193.00" arrivalLane="1170388412#0_0" arrivalPos="277.72" arrivalSpeed="14.35" duration="98.00" routeLength="1186.21" waitingTime="0.00" waitingCount="0" stopTime="0.00" timeLoss="16.53" rerouteNo="1" devices="tripinfo_s10_out_car.3 routing_s10_out_car.3" vType="car" speedFactor="1.07" vaporized=""/>
    <tripinfo id="sn_car.3" depart="41.00" departLane="1189082075#5.102_0" departPos="4.60" departSpeed="0.00" departDelay="12.58" arrival="214.00" arrivalLane="151829692#1_0" arrivalPos="49.23" arrivalSpeed="12.49" duration="173.00" routeLength="1476.85" waitingTime="44.00" waitingCount="1" stopTime="0.00" timeLoss="58.58" rerouteNo="1" devices="tripinfo_sn_car.3 routing_sn_car.3" vType="car" speedFactor="0.94" vaporized=""/>
    <tripinfo id="sn_car.4" depart="50.00" departLane="1189082075#5.102_0" departPos="4.60" departSpeed="0.00" departDelay="12.10" arrival="215.00" arrivalLane="151829692#1_0" arrivalPos="49.23" arrivalSpeed="14.00" duration="165.00" routeLength="1476.85" waitingTime="41.00" waitingCount="2" stopTime="0.00" timeLoss="71.03" rerouteNo="1" devices="tripinfo_sn_car.4 routing_sn_car.4" vType="car" speedFactor="1.14" vaporized=""/>
    <tripinfo id="sn_bike.5" depart="62.00" departLane="1189082075#5.102_0" departPos="2.10" departSpeed="0.00" departDelay="8.27" arrival="217.00" arrivalLane="151829692#1_0" arrivalPos="49.23" arrivalSpeed="12.90" duration="155.00" routeLength="1479.35" waitingTime="36.00" waitingCount="1" stopTime="0.00" timeLoss="56.38" rerouteNo="1" devices="tripinfo_sn_bike.5 routing_sn_bike.5" vType="motorbike" speedFactor="1.08" vaporized=""/>
    <tripinfo id="s10_in_rick.1" depart="45.00" departLane="-1170388412#0_0" departPos="2.90" departSpeed="0.00" departDelay="0.00" arrival="222.00" arrivalLane="151829692#1_0" arrivalPos="49.23" arrivalSpeed="10.23" duration="177.00" routeLength="1007.59" waitingTime="59.00" waitingCount="2" stopTime="0.00" timeLoss="83.71" rerouteNo="1" devices="tripinfo_s10_in_rick.1 routing_s10_in_rick.1" vType="rickshaw" speedFactor="0.94" vaporized=""/>
    <tripinfo id="sn_car.2" depart="32.00" departLane="1189082075#5.102_0" departPos="4.60" departSpeed="0.00" departDelay="13.05" arrival="224.00" arrivalLane="151829692#1_0" arrivalPos="49.23" arrivalSpeed="10.87" duration="192.00" routeLength="1476.73" waitingTime="43.00" waitingCount="1" stopTime="0.00" timeLoss="62.49" rerouteNo="1" devices="tripinfo_sn_car.2 routing_sn_car.2" vType="car" speedFactor="0.82" vaporized=""/>
    <tripinfo id="sn_car.5" depart="55.00" departLane="1189082075#5.102_0" departPos="4.60" departSpeed="0.00" departDelay="7.63" arrival="226.00" arrivalLane="151829692#1_0" arrivalPos="49.23" arrivalSpeed="12.09" duration="171.00" routeLength="1476.85" waitingTime="30.00" waitingCount="1" stopTime="0.00" timeLoss="48.67" rerouteNo="1" devices="tripinfo_sn_car.5 routing_sn_car.5" vType="car" speedFactor="0.88" vaporized=""/>
    <tripinfo id="sn_car.9" depart="90.00" departLane="1189082075#5.102_0" departPos="4.60" departSpeed="0.00" departDelay="4.73" arrival="227.00" arrivalLane="151829692#1_0" arrivalPos="49.23" arrivalSpeed="14.32" duration="137.00" routeLength="1476.85" waitingTime="15.00" waitingCount="1" stopTime="0.00" timeLoss="38.66" rerouteNo="1" devices="tripinfo_sn_car.9 routing_sn_car.9" vType="car" speedFactor="1.09" vaporized=""/>
    <tripinfo id="s10_in_rick.2" depart="92.00" departLane="-1170388412#0_0" departPos="2.90" departSpeed="0.00" departDelay="2.00" arrival="230.00" arrivalLane="151829692#1_0" arrivalPos="49.23" arrivalSpeed="11.06" duration="138.00" routeLength="1007.59" waitingTime="23.00" waitingCount="1" stopTime="0.00" timeLoss="45.38" rerouteNo="1" devices="tripinfo_s10_in_rick.2 routing_s10_in_rick.2" vType="rickshaw" speedFactor="0.87" vaporized=""/>
    <tripinfo id="sn_bike.8" depart="92.00" departLane="1189082075#5.102_0" departPos="2.10" departSpeed="0.00" departDelay="6.03" arrival="231.00" arrivalLane="151829692#1_0" arrivalPos="49.23" arrivalSpeed="15.18" duration="139.00" routeLength="1479.35" waitingTime="12.00" waitingCount="1" stopTime="0.00" timeLoss="47.21" rerouteNo="1" devices="tripinfo_sn_bike.8 routing_sn_bike.8" vType="motorbike" speedFactor="1.16" vaporized=""/>
    <tripinfo id="sn_bike.4" depart="52.00" departLane="1189082075#5.102_0" departPos="2.10" departSpeed="0.00" departDelay="9.02" arrival="233.00" arrivalLane="151829692#1_0" arrivalPos="49.23" arrivalSpeed="15.94" duration="181.00" routeLength="1479.35" waitingTime="42.00" waitingCount="1" stopTime="0.00" timeLoss="92.31" rerouteNo="1" devices="tripinfo_sn_bike.4 routing_sn_bike.4" vType="motorbike" speedFactor="1.21" vaporized=""/>
    <tripinfo id="s_hw_car.1" depart="36.00" departLane="1189082075#5.102_0" departPos="4.60" departSpeed="0.00" departDelay="12.00" arrival="235.00" arrivalLane="1265532934#1_0" arrivalPos="99.94" arrivalSpeed="16.11" duration="199.00" routeLength="2291.93" waitingTime="36.00" waitingCount="1" stopTime="0.00" timeLoss="54.25" rerouteNo="1" devices="tripinfo_s_hw_car.1 routing_s_hw_car.1" vType="car" speedFactor="1.06" vaporized=""/>
    <tripinfo id="sn_bike.3" depart="48.00" departLane="1189082075#5.102_0" departPos="2.10" departSpeed="0.00" departDelay="15.76" arrival="235.00" arrivalLane="151829692#1_0" arrivalPos="49.23" arrivalSpeed="12.09" duration="187.00" routeLength="1479.23" waitingTime="39.00" waitingCount="1" stopTime="0.00" timeLoss="82.72" rerouteNo="1" devices="tripinfo_sn_bike.3 routing_sn_bike.3" vType="motorbike" speedFactor="1.02" vaporized=""/>
    <tripinfo id="s_hw_car.2" depart="58.00" departLane="1189082075#5.102_0" departPos="4.60" departSpeed="0.00" departDelay="10.00" arrival="235.00" arrivalLane="1265532934#1_1" arrivalPos="99.94" arrivalSpeed="15.71" duration="177.00" routeLength="2291.93" waitingTime="16.00" waitingCount="1" stopTime="0.00" timeLoss="33.55" rerouteNo="1" devices="tripinfo_s_hw_car.2 routing_s_hw_car.2" vType="car" speedFactor="1.08" vaporized=""/>
    <tripinfo id="sn_rickshaw.1" depart="46.00" departLane="1189082075#5.102_0" departPos="2.90" departSpeed="0.00" departDelay="14.70" arrival="238.00" arrivalLane="151829692#1_0" arrivalPos="49.23" arrivalSpeed="10.17" duration="192.00" routeLength="1478.43" waitingTime="28.00" waitingCount="1" stopTime="0.00" timeLoss="57.73" rerouteNo="1" devices="tripinfo_sn_rickshaw.1 routing_sn_rickshaw.1" vType="rickshaw" speedFactor="0.92" vaporized=""/>
    <tripinfo id="hw_s_car.2" depart="41.00" departLane="177566553#6_0" departPos="4.60" departSpeed="0.00" departDelay="5.00" arrival="238.00" arrivalLane="183255900#1_0" arrivalPos="24.62" arrivalSpeed="14.50" duration="197.00" routeLength="2243.07" waitingTime="36.00" waitingCount="1" stopTime="0.00" timeLoss="55.04" rerouteNo="1" devices="tripinfo_hw_s_car.2 routing_hw_s_car.2" vType="car" speedFactor="1.05" vaporized=""/>
    <tripinfo id="s10_out_car.4" depart="132.00" departLane="1189082075#5.102_0" departPos="4.60" departSpeed="0.00" departDelay="12.00" arrival="238.00" arrivalLane="1170388412#0_0" arrivalPos="277.72" arrivalSpeed="11.35" duration="106.00" routeLength="1155.78" waitingTime="0.00" waitingCount="0" stopTime="0.00" timeLoss="11.44" rerouteNo="1" devices="tripinfo_s10_out_car.4 routing_s10_out_car.4" vType="car" speedFactor="0.91" vaporized=""/>
    <tripinfo id="sn_bike.7" depart="88.00" departLane="1189082075#5.102_0" departPos="2.10" departSpeed="0.00" departDelay="12.78" arrival="239.00" arrivalLane="151829692#1_0" arrivalPos="49.23" arrivalSpeed="11.44" duration="151.00" routeLength="1479.35" waitingTime="4.00" waitingCount="1" stopTime="0.00" timeLoss="38.04" rerouteNo="1" devices="tripinfo_sn_bike.7 routing_sn_bike.7" vType="motorbike" speedFactor="0.94" vaporized=""/>
    <tripinfo id="sn_car.10" depart="102.00" departLane="1189082075#5.102_0" departPos="4.60" departSpeed="0.00" departDelay="7.26" arrival="241.00" arrivalLane="151829692#1_0" arrivalPos="49.23" arrivalSpeed="13.86" duration="139.00" routeLength="1476.73" waitingTime="3.00" waitingCount="1" stopTime="0.00" timeLoss="35.28" rerouteNo="1" devices="tripinfo_sn_car.10 routing_sn_car.10" vType="car" speedFactor="1.03" vaporized=""/>
    <tripinfo id="hw_s_bike.1" depart="43.00" departLane="177566553#6_0" departPos="2.10" departSpeed="0.00" departDelay="7.00" arrival="243.00" arrivalLane="183255900#1_0" arrivalPos="24.62" arrivalSpeed="13.39" duration="200.00" routeLength="2251.71" waitingTime="36.00" waitingCount="1" stopTime="0.00" timeLoss="72.58" rerouteNo="1" devices="tripinfo_hw_s_bike.1 routing_hw_s_bike.1" vType="motorbike" speedFactor="1.10" vaporized=""/>
    <tripinfo id="sn_car.6" depart="64.00" departLane="1189082075#5.102_0" departPos="4.60" departSpeed="0.00" departDelay="7.16" arrival="243.00" arrivalLane="151829692#1_0" arrivalPos="49.23" arrivalSpeed="12.96" duration="179.00" routeLength="1476.85" waitingTime="27.00" waitingCount="1" stopTime="0.00" timeLoss="67.34" rerouteNo="1" devices="tripinfo_sn_car.6 routing_sn_car.6" vType="car" speedFactor="0.96" vaporized=""/>
    <tripinfo id="s_hw_car.3" depart="81.00" departLane="1189082075#5.102_0" departPos="4.60" departSpeed="0.00" departDelay="9.00" arrival="243.00" arrivalLane="1265532934#1_0" arrivalPos="99.94" arrivalSpeed="15.52" duration="162.00" routeLength="2291.93" waitingTime="0.00" waitingCount="0" stopTime="0.00" timeLoss="11.41" rerouteNo="1" devices="tripinfo_s_hw_car.3 routing_s_hw_car.3" vType="car" speedFactor="0.97" vaporized=""/>
    <tripinfo id="sn_car.7" depart="74.00" departLane="1189082075#5.102_0" departPos="4.60" departSpeed="0.00" departDelay="7.68" arrival="244.00" arrivalLane="151829692#1_0" arrivalPos="49.23" arrivalSpeed="14.44" duration="170.00" routeLength="1476.85" waitingTime="21.00" waitingCount="1" stopTime="0.00" timeLoss="72.25" rerouteNo="1" devices="tripinfo_sn_car.7 routing_sn_car.7" vType="car" speedFactor="1.09" vaporized=""/>
    <tripinfo id="hw_s_car.3" depart="57.00" departLane="177566553#6_0" departPos="4.60" departSpeed="0.00" departDelay="3.00" arrival="246.00" arrivalLane="183255900#1_0" arrivalPos="24.62" arrivalSpeed="14.06" duration="189.00" routeLength="2243.07" waitingTime="19.00" waitingCount="2" stopTime="0.00" timeLoss="44.86" rerouteNo="1" devices="tripinfo_hw_s_car.3 routing_hw_s_car.3" vType="car" speedFactor="1.02" vaporized=""/>
    <tripinfo id="sn_truck.1" depart="77.00" departLane="1189082075#5.102_0" departPos="8.10" departSpeed="0.00" departDelay="5.00" arrival="246.00" arrivalLane="151829692#1_0" arrivalPos="49.23" arrivalSpeed="13.63" duration="169.00" routeLength="1473.23" waitingTime="11.00" waitingCount="1" stopTime="0.00" timeLoss="62.52" rerouteNo="1" devices="tripinfo_sn_truck.1 routing_sn_truck.1" vType="truck" speedFactor="1.05" vaporized=""/>
    <tripinfo id="hw_s_car.4" depart="77.00" departLane="177566553#6_0" departPos="4.60" departSpeed="0.00" departDelay="5.00" arrival="248.00" arrivalLane="183255900#1_0" arrivalPos="24.62" arrivalSpeed="14.36" duration="171.00" routeLength="2243.07" waitingTime="3.00" waitingCount="1" stopTime="0.00" timeLoss="28.46" rerouteNo="1" devices="tripinfo_hw_s_car.4 routing_hw_s_car.4" vType="car" speedFactor="1.04" vaporized=""/>
    <tripinfo id="sn_bike.6" depart="71.00" departLane="1189082075#5.102_0" departPos="2.10" departSpeed="0.00" departDelay="6.52" arrival="249.00" arrivalLane="151829692#1_0" arrivalPos="49.23" arrivalSpeed="10.42" duration="178.00" routeLength="1479.23" waitingTime="16.00" waitingCount="1" stopTime="0.00" timeLoss="58.10" rerouteNo="1" devices="tripinfo_sn_bike.6 routing_sn_bike.6" vType="motorbike" speedFactor="0.89" vaporized=""/>
    <tripinfo id="sn_bike.9" depart="109.00" departLane="1189082075#5.102_0" departPos="2.10" departSpeed="0.00" departDelay="12.29" arrival="251.00" arrivalLane="151829692#1_0" arrivalPos="49.23" arrivalSpeed="12.36" duration="142.00" routeLength="1479.35" waitingTime="0.00" waitingCount="0" stopTime="0.00" timeLoss="36.48" rerouteNo="1" devices="tripinfo_sn_bike.9 routing_sn_bike.9" vType="motorbike" speedFactor="1.02" vaporized=""/>
    <tripinfo id="hw_s_bike.2" depart="79.00" departLane="177566553#6_0" departPos="2.10" departSpeed="0.00" departDelay="7.00" arrival="253.00" arrivalLane="183255900#1_0" arrivalPos="24.62" arrivalSpeed="12.14" duration="174.00" routeLength="2251.71" waitingTime="0.00" waitingCount="0" stopTime="0.00" timeLoss="41.42" rerouteNo="1" devices="tripinfo_hw_s_bike.2 routing_hw_s_bike.2" vType="motorbike" speedFactor="1.02" vaporized=""/>
    <tripinfo id="sn_rickshaw.2" depart="69.00" departLane="1189082075#5.102_0" departPos="2.90" departSpeed="0.00" departDelay="6.39" arrival="254.00" arrivalLane="151829692#1_0" arrivalPos="49.23" arrivalSpeed="10.29" duration="185.00" routeLength="1478.43" waitingTime="16.00" waitingCount="2" stopTime="0.00" timeLoss="51.00" rerouteNo="1" devices="tripinfo_sn_rickshaw.2 routing_sn_rickshaw.2" vType="rickshaw" speedFactor="1.06" vaporized=""/>
    <tripinfo id="sn_car.8" depart="86.00" departLane="1189082075#5.102_0" departPos="4.60" departSpeed="0.00" departDelay="10.21" arrival="255.00" arrivalLane="151829692#1_0" arrivalPos="49.23" arrivalSpeed="11.38" duration="169.00" routeLength="1476.73" waitingTime="7.00" waitingCount="2" stopTime="0.00" timeLoss="50.30" rerouteNo="1" devices="tripinfo_sn_car.8 routing_sn_car.8" vType="car" speedFactor="0.90" vaporized=""/>
    <tripinfo id="sn_bike.10" depart="114.00" departLane="1189082075#5.102_0" departPos="2.10" departSpeed="0.00" departDelay="6.54" arrival="257.00" arrivalLane="151829692#1_0" arrivalPos="49.23" arrivalSpeed="13.40" duration="143.00" routeLength="1479.35" waitingTime="2.00" waitingCount="1" stopTime="0.00" timeLoss="44.78" rerouteNo="1" devices="tripinfo_sn_bike.10 routing_sn_bike.10" vType="motorbike" speedFactor="1.09" vaporized=""/>
    <tripinfo id="sn_rickshaw.3" depart="98.00" departLane="1189082075#5.102_0" departPos="2.90" departSpeed="0.00" departDelay="4.09" arrival="260.00" arrivalLane="151829692#1_0" arrivalPos="49.23" arrivalSpeed="10.08" duration="162.00" routeLength="1478.43" waitingTime="0.00" waitingCount="0" stopTime="0.00" timeLoss="27.72" rerouteNo="1" devices="tripinfo_sn_rickshaw.3 routing_sn_rickshaw.3" vType="rickshaw" speedFactor="0.88" vaporized=""/>
    <tripinfo id="hw_s_car.5" depart="93.00" departLane="177566553#6_0" departPos="4.60" departSpeed="0.00" departDelay="3.00" arrival="261.00" arrivalLane="183255900#1_0" arrivalPos="24.62" arrivalSpeed="12.08" duration="168.00" routeLength="2249.21" waitingTime="0.00" waitingCount="0" stopTime="0.00" timeLoss="13.28" rerouteNo="1" devices="tripinfo_hw_s_car.5 routing_hw_s_car.5" vType="car" speedFactor="0.89" vaporized=""/>
    <tripinfo id="sn_bike.11" depart="119.00" departLane="1189082075#5.102_0" departPos="2.10" departSpeed="0.00" departDelay="0.79" arrival="261.00" arrivalLane="151829692#1_0" arrivalPos="49.23" arrivalSpeed="11.69" duration="142.00" routeLength="1479.35" waitingTime="0.00" waitingCount="0" stopTime="0.00" timeLoss="25.80" rerouteNo="1" devices="tripinfo_sn_bike.11 routing_sn_bike.11" vType="motorbike" speedFactor="0.92" vaporized=""/>
    <tripinfo id="sn_car.13" depart="135.00" departLane="1189082075#5.102_0" departPos="4.60" departSpeed="0.00" departDelay="11.84" arrival="263.00" arrivalLane="151829692#1_0" arrivalPos="49.23" arrivalSpeed="14.48" duration="128.00" routeLength="1476.85" waitingTime="0.00" waitingCount="0" stopTime="0.00" timeLoss="29.58" rerouteNo="1" devices="tripinfo_sn_car.13 routing_sn_car.13" vType="car" speedFactor="1.09" vaporized=""/>
    <tripinfo id="sn_car.14" depart="143.00" departLane="1189082075#5.102_0" departPos="4.60" departSpeed="0.00" departDelay="10.36" arrival="264.00" arrivalLane="151829692#1_0" arrivalPos="49.23" arrivalSpeed="14.39" duration="121.00" routeLength="1476.85" waitingTime="0.00" waitingCount="0" stopTime="0.00" timeLoss="30.91" rerouteNo="1" devices="tripinfo_sn_car.14 routing_sn_car.14" vType="car" speedFactor="1.19" vaporized=""/>
    <tripinfo id="s_hw_car.4" depart="105.00" departLane="1189082075#5.102_0" departPos="4.60" departSpeed="0.00" departDelay="9.00" arrival="265.00" arrivalLane="1265532934#1_0" arrivalPos="99.94" arrivalSpeed="16.46" duration="160.00" routeLength="2297.34" waitingTime="0.00" waitingCount="0" stopTime="0.00" timeLoss="12.88" rerouteNo="1" devices="tripinfo_s_hw_car.4 routing_s_hw_car.4" vType="car" speedFactor="1.02" vaporized=""/>
    <tripinfo id="hw_s_bike.3" depart="115.00" departLane="177566553#6_0" departPos="2.10" departSpeed="0.00" departDelay="7.00" arrival="268.00" arrivalLane="183255900#1_0" arrivalPos="24.62" arrivalSpeed="13.74" duration="153.00" routeLength="2251.71" waitingTime="0.00" waitingCount="0" stopTime="0.00" timeLoss="20.29" rerouteNo="1" devices="tripinfo_hw_s_bike.3 routing_hw_s_bike.3" vType="motorbike" speedFactor="1.03" vaporized=""/>
    <tripinfo id="hw_bus.1" depart="96.00" departLane="177566553#6_0" departPos="10.60" departSpeed="0.00" departDelay="6.00" arrival="272.00" arrivalLane="183255900#1_0" arrivalPos="24.62" arrivalSpeed="13.78" duration="176.00" routeLength="2237.07" waitingTime="0.00" waitingCount="0" stopTime="0.00" timeLoss="13.60" rerouteNo="1" devices="tripinfo_hw_bus.1 routing_hw_bus.1" vType="bus" speedFactor="1.00" vaporized=""/>
    <tripinfo id="hw_s_car.6" depart="113.00" departLane="177566553#6_0" departPos="4.60" departSpeed="0.00" departDelay="5.00" arrival="285.00" arrivalLane="183255900#1_0" arrivalPos="24.62" arrivalSpeed="11.15" duration="172.00" routeLength="2249.21" waitingTime="0.00" waitingCount="0" stopTime="0.00" timeLoss="16.25" rerouteNo="1" devices="tripinfo_hw_s_car.6 routing_hw_s_car.6" vType="car" speedFactor="0.88" vaporized=""/>
    <tripinfo id="s10_out_car.5" depart="161.00" departLane="1189082075#5.102_0" departPos="4.60" departSpeed="0.00" departDelay="11.00" arrival="296.00" arrivalLane="1170388412#0_0" arrivalPos="277.72" arrivalSpeed="13.83" duration="135.00" routeLength="1155.78" waitingTime="31.00" waitingCount="1" stopTime="0.00" timeLoss="50.36" rerouteNo="1" devices="tripinfo_s10_out_car.5 routing_s10_out_car.5" vType="car" speedFactor="1.01" vaporized=""/>
    <tripinfo id="s10_out_car.6" depart="187.00" departLane="1189082075#5.102_0" departPos="4.60" departSpeed="0.00" departDelay="7.00" arrival="308.00" arrivalLane="1170388412#0_0" arrivalPos="277.72" arrivalSpeed="10.83" duration="121.00" routeLength="1155.78" waitingTime="0.00" waitingCount="0" stopTime="0.00" timeLoss="15.15" rerouteNo="1" devices="tripinfo_s10_out_car.6 routing_s10_out_car.6" vType="car" speedFactor="0.81" vaporized=""/>
    <tripinfo id="sn_car.11" depart="112.00" departLane="1189082075#5.102_0" departPos="4.60" departSpeed="0.00" departDelay="7.79" arrival="310.00" arrivalLane="151829692#1_0" arrivalPos="49.23" arrivalSpeed="10.27" duration="198.00" routeLength="1476.73" waitingTime="48.00" waitingCount="1" stopTime="0.00" timeLoss="64.08" rerouteNo="1" devices="tripinfo_sn_car.11 routing_sn_car.11" vType="car" speedFactor="0.80" vaporized=""/>
    <tripinfo id="sn_car.12" depart="117.00" departLane="1189082075#5.102_0" departPos="4.60" departSpeed="0.00" departDelay="3.31" arrival="314.00" arrivalLane="151829692#1_0" arrivalPos="49.23" arrivalSpeed="10.11" duration="197.00" routeLength="1476.73" waitingTime="39.00" waitingCount="1" stopTime="0.00" timeLoss="56.17" rerouteNo="1" devices="tripinfo_sn_car.12 routing_sn_car.12" vType="car" speedFactor="0.76" vaporized=""/>
    <tripinfo id="sn_bus.1" depart="123.00" departLane="1189082075#5.102_0" departPos="10.60" departSpeed="0.00" departDelay="3.00" arrival="316.00" arrivalLane="151829692#1_0" arrivalPos="49.23" arrivalSpeed="10.78" duration="193.00" routeLength="1470.73" waitingTime="46.00" waitingCount="1" stopTime="0.00" timeLoss="86.09" rerouteNo="1" devices="tripinfo_sn_bus.1 routing_sn_bus.1" vType="bus" speedFactor="1.00" vaporized=""/>
    <tripinfo id="sn_car.15" depart="148.00" departLane="1189082075#5.102_0" departPos="4.60" departSpeed="0.00" departDelay="5.89" arrival="318.00" arrivalLane="151829692#1_0" arrivalPos="49.23" arrivalSpeed="14.41" duration="170.00" routeLength="1476.85" waitingTime="35.00" waitingCount="1" stopTime="0.00" timeLoss="70.31" rerouteNo="1" devices="tripinfo_sn_car.15 routing_sn_car.15" vType="car" speedFactor="1.07" vaporized=""/>
    <tripinfo id="s10_out_car.7" depart="216.00" departLane="1189082075#5.102_0" departPos="4.60" departSpeed="0.00" departDelay="6.00" arrival="319.00" arrivalLane="1170388412#0_0" arrivalPos="277.72" arrivalSpeed="11.84" duration="103.00" routeLength="1155.78" waitingTime="0.00" waitingCount="0" stopTime="0.00" timeLoss="9.53" rerouteNo="1" devices="tripinfo_s10_out_car.7 routing_s10_out_car.7" vType="car" speedFactor="0.92" vaporized=""/>