<?xml version="1.0" encoding="UTF-8"?>

<!-- generated on 2026-07-05T01:32:29.538626-05:00 by Eclipse SUMO GUI 1.25.0
<sumoConfiguration xmlns:xsi="http://www.w3.org/2001/XMLSchema-instance" xsi:noNamespaceSchemaLocation="http://sumo.dlr.de/xsd/sumoConfiguration.xsd">

    <input>
        <net-file value="../network/smart5_main.net.xml"/>
        <route-files value="../network/smart5.rou.xml"/>
        <additional-files value="../network/smart5.poly.xml"/>
    </input>

    <output>
        <summary-output value="results/summary_baseline.xml"/>
        <tripinfo-output value="results/tripinfo_baseline.xml"/>
    </output>

    <time>
        <begin value="0"/>
        <end value="1000"/>
        <step-length value="0.1"/>
    </time>

</sumoConfiguration>
-->

<tripinfos xmlns:xsi="http://www.w3.org/2001/XMLSchema-instance" xsi:noNamespaceSchemaLocation="http://sumo.dlr.de/xsd/tripinfo_file.xsd">
    <tripinfo id="s8_out_bike.0" depart="1.60" departLane="1189082075#5.102_0" departPos="2.10" departSpeed="0.00" departDelay="1.60" arrival="103.00" arrivalLane="553958820#10_0" arrivalPos="61.27" arrivalSpeed="20.00" duration="101.40" routeLength="1255.51" waitingTime="22.30" waitingCount="1" stopTime="0.00" timeLoss="37.95" rerouteNo="0" devices="tripinfo_s8_out_bike.0" vType="motorbike" speedFactor="0.94" vaporized=""/>
    <tripinfo id="s10_in_bike.0" depart="0.00" departLane="-1170388412#0_0" departPos="2.10" departSpeed="0.00" departDelay="0.00" arrival="108.10" arrivalLane="183255900#1_0" arrivalPos="24.62" arrivalSpeed="19.85" duration="108.10" routeLength="1198.17" waitingTime="25.00" waitingCount="2" stopTime="0.00" timeLoss="38.94" rerouteNo="0" devices="tripinfo_s10_in_bike.0" vType="motorbike" speedFactor="1.09" vaporized=""/>
    <tripinfo id="s8_in_bike.0" depart="0.00" departLane="-553958820#10.154_0" departPos="2.10" departSpeed="0.00" departDelay="0.00" arrival="115.80" arrivalLane="151829692#1_0" arrivalPos="49.23" arrivalSpeed="19.90" duration="115.80" routeLength="1192.31" waitingTime="36.30" waitingCount="2" stopTime="0.00" timeLoss="54.34" rerouteNo="0" devices="tripinfo_s8_in_bike.0" vType="motorbike" speedFactor="0.93" vaporized=""/>
    <tripinfo id="s10_in_car.0" depart="2.20" departLane="-1170388412#0_0" departPos="4.60" departSpeed="0.00" departDelay="2.20" arrival="125.80" arrivalLane="183255900#1_0" arrivalPos="24.62" arrivalSpeed="16.61" duration="123.60" routeLength="1195.67" waitingTime="30.70" waitingCount="2" stopTime="0.00" timeLoss="45.42" rerouteNo="0" devices="tripinfo_s10_in_car.0" vType="car" speedFactor="1.03" vaporized=""/>
    <tripinfo id="s10_in_rick.0" depart="4.20" departLane="-1170388412#0_0" departPos="2.90" departSpeed="0.00" departDelay="4.20" arrival="128.80" arrivalLane="151829692#1_0" arrivalPos="49.23" arrivalSpeed="11.05" duration="124.60" routeLength="1007.59" waitingTime="20.70" waitingCount="1" stopTime="0.00" timeLoss="32.84" rerouteNo="0" devices="tripinfo_s10_in_rick.0" vType="rickshaw" speedFactor="1.05" vaporized=""/>
    <tripinfo id="s8_in_car.0" depart="2.20" departLane="-553958820#10.154_0" departPos="4.60" departSpeed="0.00" departDelay="2.20" arrival="130.10" arrivalLane="151829692#1_0" arrivalPos="49.23" arrivalSpeed="13.55" duration="127.90" routeLength="1189.81" waitingTime="25.70" waitingCount="4" stopTime="0.00" timeLoss="55.11" rerouteNo="0" devices="tripinfo_s8_in_car.0" vType="car" speedFactor="0.88" vaporized=""/>
    <tripinfo id="sn_bike.0" depart="4.20" departLane="1189082075#5.102_0" departPos="2.10" departSpeed="0.00" departDelay="4.20" arrival="132.20" arrivalLane="151829692#1_0" arrivalPos="49.23" arrivalSpeed="19.99" duration="128.00" routeLength="1479.35" waitingTime="40.50" waitingCount="1" stopTime="0.00" timeLoss="53.20" rerouteNo="0" devices="tripinfo_sn_bike.0" vType="motorbike" speedFactor="1.01" vaporized=""/>
    <tripinfo id="sn_car.1" depart="19.40" departLane="1189082075#5.102_0" departPos="4.60" departSpeed="0.00" departDelay="12.20" arrival="140.20" arrivalLane="151829692#1_0" arrivalPos="49.23" arrivalSpeed="16.59" duration="120.80" routeLength="1476.85" waitingTime="15.40" waitingCount="1" stopTime="0.00" timeLoss="31.67" rerouteNo="0" devices="tripinfo_sn_car.1" vType="car" speedFactor="0.92" vaporized=""/>
    <tripinfo id="sn_bike.2" depart="24.50" departLane="1189082075#5.102_0" departPos="2.10" departSpeed="0.00" departDelay="8.50" arrival="141.50" arrivalLane="151829692#1_0" arrivalPos="49.23" arrivalSpeed="19.62" duration="117.00" routeLength="1479.35" waitingTime="13.50" waitingCount="1" stopTime="0.00" timeLoss="42.28" rerouteNo="0" devices="tripinfo_sn_bike.2" vType="motorbike" speedFactor="0.99" vaporized=""/>
    <tripinfo id="sn_car.0" depart="9.70" departLane="1189082075#5.102_0" departPos="4.60" departSpeed="0.00" departDelay="9.70" arrival="143.80" arrivalLane="151829692#1_0" arrivalPos="49.23" arrivalSpeed="16.65" duration="134.10" routeLength="1476.73" waitingTime="24.70" waitingCount="1" stopTime="0.00" timeLoss="44.94" rerouteNo="0" devices="tripinfo_sn_car.0" vType="car" speedFactor="0.97" vaporized=""/>
    <tripinfo id="s8_in_rick.0" depart="4.20" departLane="-553958820#10.154_0" departPos="2.90" departSpeed="0.00" departDelay="4.20" arrival="145.00" arrivalLane="183255900#1_0" arrivalPos="24.62" arrivalSpeed="10.99" duration="140.80" routeLength="1311.55" waitingTime="7.10" waitingCount="1" stopTime="0.00" timeLoss="21.88" rerouteNo="0" devices="tripinfo_s8_in_rick.0" vType="rickshaw" speedFactor="0.94" vaporized=""/>
    <tripinfo id="sn_car.2" depart="22.90" departLane="1189082075#5.102_0" departPos="4.60" departSpeed="0.00" departDelay="8.50" arrival="145.50" arrivalLane="151829692#1_0" arrivalPos="49.23" arrivalSpeed="16.62" duration="122.60" routeLength="1476.85" waitingTime="11.40" waitingCount="1" stopTime="0.00" timeLoss="33.55" rerouteNo="0" devices="tripinfo_sn_car.2" vType="car" speedFactor="1.01" vaporized=""/>
    <tripinfo id="ns_bike.0" depart="1.60" departLane="1465267571#5_0" departPos="2.10" departSpeed="0.00" departDelay="1.60" arrival="152.30" arrivalLane="183255900#1_0" arrivalPos="24.62" arrivalSpeed="19.80" duration="150.70" routeLength="1495.30" waitingTime="57.60" waitingCount="2" stopTime="0.00" timeLoss="73.89" rerouteNo="0" devices="tripinfo_ns_bike.0" vType="motorbike" speedFactor="1.05" vaporized=""/>
    <tripinfo id="sn_car.3" depart="30.40" departLane="1189082075#5.102_0" departPos="4.60" departSpeed="0.00" departDelay="8.80" arrival="154.00" arrivalLane="151829692#1_1" arrivalPos="49.23" arrivalSpeed="16.59" duration="123.60" routeLength="1480.47" waitingTime="3.30" waitingCount="1" stopTime="0.00" timeLoss="34.49" rerouteNo="0" devices="tripinfo_sn_car.3" vType="car" speedFactor="1.09" vaporized=""/>
    <tripinfo id="sn_bike.3" depart="33.20" departLane="1189082075#5.102_0" departPos="2.10" departSpeed="0.00" departDelay="9.20" arrival="156.10" arrivalLane="151829692#1_1" arrivalPos="49.23" arrivalSpeed="19.91" duration="122.90" routeLength="1482.97" waitingTime="4.60" waitingCount="1" stopTime="0.00" timeLoss="47.71" rerouteNo="0" devices="tripinfo_sn_bike.3" vType="motorbike" speedFactor="0.88" vaporized=""/>
    <tripinfo id="sn_truck.0" depart="15.30" departLane="1189082075#5.102_0" departPos="8.10" departSpeed="0.00" departDelay="15.30" arrival="156.20" arrivalLane="151829692#1_0" arrivalPos="49.23" arrivalSpeed="13.90" duration="140.90" routeLength="1473.35" waitingTime="6.30" waitingCount="1" stopTime="0.00" timeLoss="34.24" rerouteNo="0" devices="tripinfo_sn_truck.0" vType="truck" speedFactor="0.91" vaporized=""/>
    <tripinfo id="s10_out_car.0" depart="0.00" departLane="1189082075#5.102_0" departPos="4.60" departSpeed="0.00" departDelay="0.00" arrival="161.60" arrivalLane="1170388412#0_0" arrivalPos="277.72" arrivalSpeed="13.66" duration="161.60" routeLength="1186.21" waitingTime="69.20" waitingCount="2" stopTime="0.00" timeLoss="84.47" rerouteNo="0" devices="tripinfo_s10_out_car.0" vType="car" speedFactor="0.99" vaporized=""/>
    <tripinfo id="s10_in_rick.1" depart="45.00" departLane="-1170388412#0_0" departPos="2.90" departSpeed="0.00" departDelay="0.00" arrival="161.90" arrivalLane="151829692#1_0" arrivalPos="49.23" arrivalSpeed="11.09" duration="116.90" routeLength="1007.59" waitingTime="10.00" waitingCount="1" stopTime="0.00" timeLoss="25.16" rerouteNo="0" devices="tripinfo_s10_in_rick.1" vType="rickshaw" speedFactor="1.06" vaporized=""/>
    <tripinfo id="sn_bus.0" depart="6.00" departLane="1189082075#5.102_0" departPos="10.60" departSpeed="0.00" departDelay="6.00" arrival="163.30" arrivalLane="151829692#1_0" arrivalPos="49.23" arrivalSpeed="12.37" duration="157.30" routeLength="1470.73" waitingTime="17.00" waitingCount="1" stopTime="0.00" timeLoss="51.04" rerouteNo="0" devices="tripinfo_sn_bus.0" vType="bus" speedFactor="1.00" vaporized=""/>
    <tripinfo id="ns_car.0" depart="7.10" departLane="1465267571#5_0" departPos="4.60" departSpeed="0.00" departDelay="7.10" arrival="164.90" arrivalLane="183255900#1_0" arrivalPos="24.62" arrivalSpeed="16.60" duration="157.80" routeLength="1492.80" waitingTime="41.40" waitingCount="2" stopTime="0.00" timeLoss="66.09" rerouteNo="0" devices="tripinfo_ns_car.0" vType="car" speedFactor="0.89" vaporized=""/>
    <tripinfo id="hw_s_bike.0" depart="5.20" departLane="177566553#6_0" departPos="2.10" departSpeed="0.00" departDelay="5.20" arrival="174.00" arrivalLane="183255900#1_1" arrivalPos="24.62" arrivalSpeed="19.91" duration="168.80" routeLength="2245.57" waitingTime="0.00" waitingCount="0" stopTime="0.00" timeLoss="10.58" rerouteNo="0" devices="tripinfo_hw_s_bike.0" vType="motorbike" speedFactor="1.01" vaporized=""/>
    <tripinfo id="hw_s_car.0" depart="6.20" departLane="177566553#6_0" departPos="4.60" departSpeed="0.00" departDelay="6.20" arrival="174.50" arrivalLane="183255900#1_0" arrivalPos="24.62" arrivalSpeed="16.61" duration="168.30" routeLength="2243.07" waitingTime="0.00" waitingCount="0" stopTime="0.00" timeLoss="6.92" rerouteNo="0" devices="tripinfo_hw_s_car.0" vType="car" speedFactor="1.08" vaporized=""/>
    <tripinfo id="hw_s_car.1" depart="16.90" departLane="177566553#6_0" departPos="4.60" departSpeed="0.00" departDelay="2.50" arrival="178.70" arrivalLane="183255900#1_0" arrivalPos="24.62" arrivalSpeed="16.63" duration="161.80" routeLength="2243.07" waitingTime="0.00" waitingCount="0" stopTime="0.00" timeLoss="8.54" rerouteNo="0" devices="tripinfo_hw_s_car.1" vType="car" speedFactor="1.18" vaporized=""/>
    <tripinfo id="hw_bus.0" depart="0.00" departLane="177566553#6_0" departPos="10.60" departSpeed="0.00" departDelay="0.00" arrival="192.20" arrivalLane="183255900#1_0" arrivalPos="24.62" arrivalSpeed="13.88" duration="192.20" routeLength="2237.07" waitingTime="0.00" waitingCount="0" stopTime="0.00" timeLoss="10.52" rerouteNo="0" devices="tripinfo_hw_bus.0" vType="bus" speedFactor="1.00" vaporized=""/>
    <tripinfo id="s8_out_bike.1" depart="32.10" departLane="1189082075#5.102_0" departPos="2.10" departSpeed="0.00" departDelay="8.10" arrival="193.00" arrivalLane="553958820#10_0" arrivalPos="61.27" arrivalSpeed="19.84" duration="160.90" routeLength="1255.51" waitingTime="58.50" waitingCount="2" stopTime="0.00" timeLoss="97.39" rerouteNo="0" devices="tripinfo_s8_out_bike.1" vType="motorbike" speedFactor="0.90" vaporized=""/>
    <tripinfo id="hw_s_bike.1" depart="19.40" departLane="177566553#6_0" departPos="2.10" departSpeed="0.00" departDelay="1.40" arrival="193.90" arrivalLane="183255900#1_0" arrivalPos="24.62" arrivalSpeed="18.65" duration="174.50" routeLength="2245.57" waitingTime="0.00" waitingCount="0" stopTime="0.00" timeLoss="12.35" rerouteNo="0" devices="tripinfo_hw_s_bike.1" vType="motorbike" speedFactor="0.97" vaporized=""/>
    <tripinfo id="s10_in_bike.1" depart="24.00" departLane="-1170388412#0_0" departPos="2.10" departSpeed="0.00" departDelay="0.00" arrival="197.70" arrivalLane="183255900#1_0" arrivalPos="24.62" arrivalSpeed="19.90" duration="173.70" routeLength="1198.17" waitingTime="89.90" waitingCount="2" stopTime="0.00" timeLoss="103.06" rerouteNo="0" devices="tripinfo_s10_in_bike.1" vType="motorbike" speedFactor="1.04" vaporized=""/>
    <tripinfo id="sn_bike.4" depart="39.50" departLane="1189082075#5.102_0" departPos="2.10" departSpeed="0.00" departDelay="7.50" arrival="205.30" arrivalLane="151829692#1_0" arrivalPos="49.23" arrivalSpeed="19.96" duration="165.80" routeLength="1479.35" waitingTime="49.10" waitingCount="2" stopTime="0.00" timeLoss="91.12" rerouteNo="0" devices="tripinfo_sn_bike.4" vType="motorbike" speedFactor="1.02" vaporized=""/>
    <tripinfo id="sn_car.5" depart="42.80" departLane="1189082075#5.102_0" departPos="4.60" departSpeed="0.00" departDelay="6.80" arrival="209.20" arrivalLane="151829692#1_0" arrivalPos="49.23" arrivalSpeed="16.69" duration="166.40" routeLength="1476.85" waitingTime="45.30" waitingCount="1" stopTime="0.00" timeLoss="77.28" rerouteNo="0" devices="tripinfo_sn_car.5" vType="car" speedFactor="0.94" vaporized=""/>
    <tripinfo id="sn_bike.1" depart="20.70" departLane="1189082075#5.102_0" departPos="2.10" departSpeed="0.00" departDelay="12.70" arrival="210.40" arrivalLane="151829692#1_0" arrivalPos="49.23" arrivalSpeed="19.30" duration="189.70" routeLength="1479.23" waitingTime="59.20" waitingCount="3" stopTime="0.00" timeLoss="115.14" rerouteNo="0" devices="tripinfo_sn_bike.1" vType="motorbike" speedFactor="1.13" vaporized=""/>
    <tripinfo id="sn_bike.6" depart="51.00" departLane="1189082075#5.102_0" departPos="2.10" departSpeed="0.00" departDelay="3.00" arrival="211.60" arrivalLane="151829692#1_0" arrivalPos="49.23" arrivalSpeed="19.93" duration="160.60" routeLength="1479.35" waitingTime="47.30" waitingCount="3" stopTime="0.00" timeLoss="85.85" rerouteNo="0" devices="tripinfo_sn_bike.6" vType="motorbike" speedFactor="1.03" vaporized=""/>
    <tripinfo id="s10_in_bike.2" depart="48.00" departLane="-1170388412#0_0" departPos="2.10" departSpeed="0.00" departDelay="0.00" arrival="212.90" arrivalLane="183255900#1_0" arrivalPos="24.62" arrivalSpeed="19.86" duration="164.90" routeLength="1198.17" waitingTime="60.50" waitingCount="3" stopTime="0.00" timeLoss="93.79" rerouteNo="0" devices="tripinfo_s10_in_bike.2" vType="motorbike" speedFactor="1.03" vaporized=""/>
    <tripinfo id="sn_bike.5" depart="44.40" departLane="1189082075#5.102_0" departPos="2.10" departSpeed="0.00" departDelay="4.40" arrival="213.00" arrivalLane="151829692#1_0" arrivalPos="49.23" arrivalSpeed="19.81" duration="168.60" routeLength="1479.35" waitingTime="42.60" waitingCount="1" stopTime="0.00" timeLoss="93.76" rerouteNo="0" devices="tripinfo_sn_bike.5" vType="motorbike" speedFactor="0.91" vaporized=""/>
    <tripinfo id="sn_car.7" depart="53.10" departLane="1189082075#5.102_0" departPos="4.60" departSpeed="0.00" departDelay="2.70" arrival="215.40" arrivalLane="151829692#1_0" arrivalPos="49.23" arrivalSpeed="16.62" duration="162.30" routeLength="1476.85" waitingTime="39.20" waitingCount="1" stopTime="0.00" timeLoss="73.22" rerouteNo="0" devices="tripinfo_sn_car.7" vType="car" speedFactor="1.02" vaporized=""/>
    <tripinfo id="s10_in_car.1" depart="30.00" departLane="-1170388412#0_0" departPos="4.60" departSpeed="0.00" departDelay="0.00" arrival="215.70" arrivalLane="183255900#1_0" arrivalPos="24.62" arrivalSpeed="16.62" duration="185.70" routeLength="1195.67" waitingTime="81.80" waitingCount="3" stopTime="0.00" timeLoss="109.73" rerouteNo="0" devices="tripinfo_s10_in_car.1" vType="car" speedFactor="1.10" vaporized=""/>
    <tripinfo id="hw_n_bike.1" depart="18.50" departLane="177566553#6_0" departPos="2.10" departSpeed="0.00" departDelay="0.50" arrival="216.70" arrivalLane="151829692#1_0" arrivalPos="49.23" arrivalSpeed="19.80" duration="198.20" routeLength="2176.05" waitingTime="18.90" waitingCount="1" stopTime="0.00" timeLoss="45.94" rerouteNo="0" devices="tripinfo_hw_n_bike.1" vType="motorbike" speedFactor="1.02" vaporized=""/>
    <tripinfo id="sn_rickshaw.1" depart="27.40" departLane="1189082075#5.102_0" departPos="2.90" departSpeed="0.00" departDelay="7.40" arrival="222.50" arrivalLane="151829692#1_0" arrivalPos="49.23" arrivalSpeed="11.05" duration="195.10" routeLength="1478.55" waitingTime="35.80" waitingCount="1" stopTime="0.00" timeLoss="61.69" rerouteNo="0" devices="tripinfo_sn_rickshaw.1" vType="rickshaw" speedFactor="1.03" vaporized=""/>
    <tripinfo id="hw_n_car.0" depart="3.60" departLane="177566553#6_0" departPos="4.60" departSpeed="0.00" departDelay="3.60" arrival="223.80" arrivalLane="151829692#1_0" arrivalPos="49.23" arrivalSpeed="13.56" duration="220.20" routeLength="2177.70" waitingTime="15.70" waitingCount="1" stopTime="0.00" timeLoss="49.22" rerouteNo="0" devices="tripinfo_hw_n_car.0" vType="car" speedFactor="0.94" vaporized=""/>
    <tripinfo id="s10_in_car.2" depart="60.00" departLane="-1170388412#0_0" departPos="4.60" departSpeed="0.00" departDelay="0.00" arrival="224.10" arrivalLane="183255900#1_1" arrivalPos="24.62" arrivalSpeed="16.63" duration="164.10" routeLength="1195.67" waitingTime="59.90" waitingCount="3" stopTime="0.00" timeLoss="86.80" rerouteNo="0" devices="tripinfo_s10_in_car.2" vType="car" speedFactor="1.06" vaporized=""/>
    <tripinfo id="hw_n_bike.0" depart="2.40" departLane="177566553#6_0" departPos="2.10" departSpeed="0.00" departDelay="2.40" arrival="225.00" arrivalLane="151829692#1_0" arrivalPos="49.23" arrivalSpeed="15.19" duration="222.60" routeLength="2180.20" waitingTime="33.90" waitingCount="1" stopTime="0.00" timeLoss="74.15" rerouteNo="0" devices="tripinfo_hw_n_bike.0" vType="motorbike" speedFactor="1.06" vaporized=""/>
    <tripinfo id="s10_in_bike.3" depart="72.00" departLane="-1170388412#0_0" departPos="2.10" departSpeed="0.00" departDelay="0.00" arrival="225.30" arrivalLane="183255900#1_1" arrivalPos="24.62" arrivalSpeed="19.49" duration="153.30" routeLength="1198.17" waitingTime="52.30" waitingCount="2" stopTime="0.00" timeLoss="84.34" rerouteNo="0" devices="tripinfo_s10_in_bike.3" vType="motorbike" speedFactor="1.10" vaporized=""/>
    <tripinfo id="s8_in_bike.1" depart="24.00" departLane="-553958820#10.154_0" departPos="2.10" departSpeed="0.00" departDelay="0.00" arrival="226.10" arrivalLane="151829692#1_0" arrivalPos="49.23" arrivalSpeed="16.79" duration="202.10" routeLength="1192.31" waitingTime="95.90" waitingCount="4" stopTime="0.00" timeLoss="140.99" rerouteNo="0" devices="tripinfo_s8_in_bike.1" vType="motorbike" speedFactor="1.00" vaporized=""/>
    <tripinfo id="s10_in_car.3" depart="90.00" departLane="-1170388412#0_0" departPos="4.60" departSpeed="0.00" departDelay="0.00" arrival="228.10" arrivalLane="183255900#1_0" arrivalPos="24.62" arrivalSpeed="16.67" duration="138.10" routeLength="1195.67" waitingTime="38.20" waitingCount="2" stopTime="0.00" timeLoss="59.24" rerouteNo="0" devices="tripinfo_s10_in_car.3" vType="car" speedFactor="1.01" vaporized=""/>
    <tripinfo id="s10_in_rick.2" depart="91.90" departLane="-1170388412#0_0" departPos="2.90" departSpeed="0.00" departDelay="1.90" arrival="228.60" arrivalLane="151829692#1_0" arrivalPos="49.23" arrivalSpeed="11.00" duration="136.70" routeLength="1007.59" waitingTime="23.00" waitingCount="1" stopTime="0.00" timeLoss="45.17" rerouteNo="0" devices="tripinfo_s10_in_rick.2" vType="rickshaw" speedFactor="1.12" vaporized=""/>
    <tripinfo id="hw_truck.0" depart="9.40" departLane="177566553#6_0" departPos="8.10" departSpeed="0.00" departDelay="9.40" arrival="230.30" arrivalLane="151829692#1_0" arrivalPos="49.23" arrivalSpeed="12.38" duration="220.90" routeLength="2174.20" waitingTime="9.90" waitingCount="1" stopTime="0.00" timeLoss="45.59" rerouteNo="0" devices="tripinfo_hw_truck.0" vType="truck" speedFactor="1.02" vaporized=""/>
    <tripinfo id="s10_out_bike.0" depart="15.20" departLane="1465267571#5_0" departPos="2.10" departSpeed="0.00" departDelay="15.20" arrival="230.30" arrivalLane="1170388412#0_0" arrivalPos="277.72" arrivalSpeed="15.52" duration="215.10" routeLength="1095.73" waitingTime="91.00" waitingCount="4" stopTime="0.00" timeLoss="153.52" rerouteNo="0" devices="tripinfo_s10_out_bike.0" vType="motorbike" speedFactor="1.12" vaporized=""/>
    <tripinfo id="s8_in_bike.2" depart="48.00" departLane="-553958820#10.154_0" departPos="2.10" departSpeed="0.00" departDelay="0.00" arrival="231.80" arrivalLane="151829692#1_0" arrivalPos="49.23" arrivalSpeed="15.20" duration="183.80" routeLength="1192.31" waitingTime="43.70" waitingCount="2" stopTime="0.00" timeLoss="122.70" rerouteNo="0" devices="tripinfo_s8_in_bike.2" vType="motorbike" speedFactor="1.01" vaporized=""/>
    <tripinfo id="s8_in_bike.3" depart="72.00" departLane="-553958820#10.154_0" departPos="2.10" departSpeed="0.00" departDelay="0.00" arrival="232.80" arrivalLane="151829692#1_0" arrivalPos="49.23" arrivalSpeed="16.75" duration="160.80" routeLength="1192.31" waitingTime="22.50" waitingCount="2" stopTime="0.00" timeLoss="100.04" rerouteNo="0" devices="tripinfo_s8_in_bike.3" vType="motorbike" speedFactor="1.10" vaporized=""/>
    <tripinfo id="s8_in_car.1" depart="30.00" departLane="-553958820#10.154_0" departPos="4.60" departSpeed="0.00" departDelay="0.00" arrival="234.00" arrivalLane="151829692#1_0" arrivalPos="49.23" arrivalSpeed="16.64" duration="204.00" routeLength="1189.81" waitingTime="75.70" waitingCount="3" stopTime="0.00" timeLoss="131.67" rerouteNo="0" devices="tripinfo_s8_in_car.1" vType="car" speedFactor="1.00" vaporized=""/>
    <tripinfo id="s8_in_rick.1" depart="45.00" departLane="-553958820#10.154_0" departPos="2.90" departSpeed="0.00" departDelay="0.00" arrival="234.90" arrivalLane="183255900#1_0" arrivalPos="24.62" arrivalSpeed="11.04" duration="189.90" routeLength="1311.55" waitingTime="47.30" waitingCount="2" stopTime="0.00" timeLoss="70.96" rerouteNo="0" devices="tripinfo_s8_in_rick.1" vType="rickshaw" speedFactor="0.96" vaporized=""/>
    <tripinfo id="sn_bike.8" depart="64.60" departLane="1189082075#5.102_0" departPos="2.10" departSpeed="0.00" departDelay="0.60" arrival="235.10" arrivalLane="151829692#1_0" arrivalPos="49.23" arrivalSpeed="18.70" duration="170.50" routeLength="1479.35" waitingTime="57.30" waitingCount="1" stopTime="0.00" timeLoss="95.71" rerouteNo="0" devices="tripinfo_sn_bike.8" vType="motorbike" speedFactor="0.96" vaporized=""/>
    <tripinfo id="s_hw_car.1" depart="25.40" departLane="1189082075#5.102_0" departPos="4.60" departSpeed="0.00" departDelay="7.40" arrival="235.60" arrivalLane="1265532934#1_1" arrivalPos="99.94" arrivalSpeed="16.65" duration="210.20" routeLength="2297.34" waitingTime="21.10" waitingCount="7" stopTime="0.00" timeLoss="48.02" rerouteNo="0" devices="tripinfo_s_hw_car.1" vType="car" speedFactor="1.10" vaporized=""/>
    <tripinfo id="s_hw_car.0" depart="2.60" departLane="1189082075#5.102_0" departPos="4.60" departSpeed="0.00" departDelay="2.60" arrival="235.80" arrivalLane="1265532934#1_0" arrivalPos="99.94" arrivalSpeed="16.61" duration="233.20" routeLength="2291.93" waitingTime="42.80" waitingCount="2" stopTime="0.00" timeLoss="63.45" rerouteNo="0" devices="tripinfo_s_hw_car.0" vType="car" speedFactor="1.02" vaporized=""/>
    <tripinfo id="s8_in_car.3" depart="90.00" departLane="-553958820#10.154_0" departPos="4.60" departSpeed="0.00" departDelay="0.00" arrival="236.40" arrivalLane="151829692#1_0" arrivalPos="49.23" arrivalSpeed="16.62" duration="146.40" routeLength="1189.81" waitingTime="17.30" waitingCount="1" stopTime="0.00" timeLoss="74.09" rerouteNo="0" devices="tripinfo_s8_in_car.3" vType="car" speedFactor="1.00" vaporized=""/>
    <tripinfo id="s8_in_car.2" depart="60.00" departLane="-553958820#10.154_0" departPos="4.60" departSpeed="0.00" departDelay="0.00" arrival="237.60" arrivalLane="151829692#1_0" arrivalPos="49.23" arrivalSpeed="16.65" duration="177.60" routeLength="1189.81" waitingTime="33.90" waitingCount="2" stopTime="0.00" timeLoss="104.93" rerouteNo="0" devices="tripinfo_s8_in_car.2" vType="car" speedFactor="0.91" vaporized=""/>
    <tripinfo id="s8_in_bike.4" depart="96.00" departLane="-553958820#10.154_0" departPos="2.10" departSpeed="0.00" departDelay="0.00" arrival="238.80" arrivalLane="151829692#1_0" arrivalPos="49.23" arrivalSpeed="18.71" duration="142.80" routeLength="1192.31" waitingTime="12.70" waitingCount="1" stopTime="0.00" timeLoss="81.68" rerouteNo="0" devices="tripinfo_s8_in_bike.4" vType="motorbike" speedFactor="1.00" vaporized=""/>
    <tripinfo id="sn_car.8" depart="58.20" departLane="1189082075#5.102_0" departPos="4.60" departSpeed="0.00" departDelay="0.60" arrival="240.10" arrivalLane="151829692#1_0" arrivalPos="49.23" arrivalSpeed="16.65" duration="181.90" routeLength="1476.85" waitingTime="59.20" waitingCount="1" stopTime="0.00" timeLoss="92.60" rerouteNo="0" devices="tripinfo_sn_car.8" vType="car" speedFactor="0.83" vaporized=""/>
    <tripinfo id="sn_car.9" depart="65.60" departLane="1189082075#5.102_0" departPos="4.60" departSpeed="0.00" departDelay="0.80" arrival="240.20" arrivalLane="151829692#1_1" arrivalPos="49.23" arrivalSpeed="16.57" duration="174.60" routeLength="1480.47" waitingTime="55.80" waitingCount="1" stopTime="0.00" timeLoss="85.24" rerouteNo="0" devices="tripinfo_sn_car.9" vType="car" speedFactor="0.95" vaporized=""/>
    <tripinfo id="sn_bike.9" depart="75.90" departLane="1189082075#5.102_0" departPos="2.10" departSpeed="0.00" departDelay="3.90" arrival="241.40" arrivalLane="151829692#1_0" arrivalPos="49.23" arrivalSpeed="19.84" duration="165.50" routeLength="1479.35" waitingTime="54.30" waitingCount="1" stopTime="0.00" timeLoss="90.71" rerouteNo="0" devices="tripinfo_sn_bike.9" vType="motorbike" speedFactor="1.00" vaporized=""/>
    <tripinfo id="s8_in_rick.2" depart="92.00" departLane="-553958820#10.154_0" departPos="2.90" departSpeed="0.00" departDelay="2.00" arrival="241.70" arrivalLane="183255900#1_0" arrivalPos="24.62" arrivalSpeed="11.01" duration="149.70" routeLength="1311.55" waitingTime="14.20" waitingCount="1" stopTime="0.00" timeLoss="30.81" rerouteNo="0" devices="tripinfo_s8_in_rick.2" vType="rickshaw" speedFactor="0.95" vaporized=""/>
    <tripinfo id="sn_car.4" depart="35.40" departLane="1189082075#5.102_0" departPos="4.60" departSpeed="0.00" departDelay="6.60" arrival="242.90" arrivalLane="151829692#1_0" arrivalPos="49.23" arrivalSpeed="16.61" duration="207.50" routeLength="1476.73" waitingTime="64.70" waitingCount="3" stopTime="0.00" timeLoss="118.49" rerouteNo="0" devices="tripinfo_sn_car.4" vType="car" speedFactor="1.02" vaporized=""/>
    <tripinfo id="s10_out_bike.1" depart="31.80" departLane="1465267571#5_0" departPos="2.10" departSpeed="0.00" departDelay="7.80" arrival="244.00" arrivalLane="1170388412#0_0" arrivalPos="277.72" arrivalSpeed="14.96" duration="212.20" routeLength="1099.15" waitingTime="53.80" waitingCount="3" stopTime="0.00" timeLoss="149.68" rerouteNo="0" devices="tripinfo_s10_out_bike.1" vType="motorbike" speedFactor="1.09" vaporized=""/>
    <tripinfo id="sn_car.6" depart="48.30" departLane="1189082075#5.102_0" departPos="4.60" departSpeed="0.00" departDelay="5.10" arrival="244.10" arrivalLane="151829692#1_1" arrivalPos="49.23" arrivalSpeed="16.69" duration="195.80" routeLength="1480.35" waitingTime="62.50" waitingCount="2" stopTime="0.00" timeLoss="106.44" rerouteNo="0" devices="tripinfo_sn_car.6" vType="car" speedFactor="0.94" vaporized=""/>
    <tripinfo id="ns_car.1" depart="19.00" departLane="1465267571#5_0" departPos="4.60" departSpeed="0.00" departDelay="11.80" arrival="245.20" arrivalLane="183255900#1_1" arrivalPos="24.62" arrivalSpeed="16.62" duration="226.20" routeLength="1492.80" waitingTime="67.60" waitingCount="3" stopTime="0.00" timeLoss="134.23" rerouteNo="0" devices="tripinfo_ns_car.1" vType="car" speedFactor="0.87" vaporized=""/>
    <tripinfo id="ns_bus.0" depart="3.50" departLane="1465267571#5_0" departPos="10.60" departSpeed="0.00" departDelay="3.50" arrival="246.50" arrivalLane="183255900#1_0" arrivalPos="24.62" arrivalSpeed="13.87" duration="243.00" routeLength="1490.22" waitingTime="92.60" waitingCount="3" stopTime="0.00" timeLoss="135.66" rerouteNo="0" devices="tripinfo_ns_bus.0" vType="bus" speedFactor="1.00" vaporized=""/>
    <tripinfo id="ns_bike.1" depart="20.70" departLane="1465267571#5_0" departPos="2.10" departSpeed="0.00" departDelay="12.70" arrival="246.50" arrivalLane="183255900#1_1" arrivalPos="24.62" arrivalSpeed="19.96" duration="225.80" routeLength="1495.30" waitingTime="63.90" waitingCount="3" stopTime="0.00" timeLoss="148.11" rerouteNo="0" devices="tripinfo_ns_bike.1" vType="motorbike" speedFactor="0.95" vaporized=""/>
    <tripinfo id="ns_bike.2" depart="23.40" departLane="1465267571#5_0" departPos="2.10" departSpeed="0.00" departDelay="7.40" arrival="247.50" arrivalLane="183255900#1_1" arrivalPos="24.62" arrivalSpeed="19.93" duration="224.10" routeLength="1495.30" waitingTime="60.40" waitingCount="3" stopTime="0.00" timeLoss="148.00" rerouteNo="0" devices="tripinfo_ns_bike.2" vType="motorbike" speedFactor="1.17" vaporized=""/>
    <tripinfo id="sn_rickshaw.0" depart="11.20" departLane="1189082075#5.102_0" departPos="2.90" departSpeed="0.00" departDelay="11.20" arrival="249.00" arrivalLane="151829692#1_0" arrivalPos="49.23" arrivalSpeed="11.03" duration="237.80" routeLength="1478.43" waitingTime="72.40" waitingCount="3" stopTime="0.00" timeLoss="104.16" rerouteNo="0" devices="tripinfo_sn_rickshaw.0" vType="rickshaw" speedFactor="0.89" vaporized=""/>
    <tripinfo id="ns_car.3" depart="29.30" departLane="1465267571#5_0" departPos="4.60" departSpeed="0.00" departDelay="7.70" arrival="250.10" arrivalLane="183255900#1_1" arrivalPos="24.62" arrivalSpeed="16.57" duration="220.80" routeLength="1492.80" waitingTime="62.20" waitingCount="3" stopTime="0.00" timeLoss="129.60" rerouteNo="0" devices="tripinfo_ns_car.3" vType="car" speedFactor="0.96" vaporized=""/>